# vtk DataFile Version 2.0
Generated Volume Mesh
ASCII
DATASET UNSTRUCTURED_GRID
POINTS 256 float
0.000000 0.000000 0.000000
0.000000 1.000000 0.000000
0.000000 2.000000 0.000000
0.000000 3.000000 0.000000
0.000000 0.000000 1.000000
0.000000 1.000000 1.000000
0.000000 2.000000 1.000000
0.000000 3.000000 1.000000
0.000000 0.000000 2.000000
0.000000 1.000000 2.000000
0.000000 2.000000 2.000000
0.000000 3.000000 2.000000
0.000000 0.000000 3.000000
0.000000 1.000000 3.000000
0.000000 2.000000 3.000000
0.000000 3.000000 3.000000
1.000001 -0.000005 0.000009
1.000000 0.999999 0.000008
1.000000 2.000001 0.000008
1.000001 3.000005 0.000009
1.000003 -0.000001 1.000007
1.000002 1.000000 1.000007
1.000002 2.000000 1.000007
1.000003 3.000001 1.000007
0.999997 0.000001 2.000007
0.999998 1.000000 2.000007
0.999998 2.000000 2.000007
0.999997 2.999999 2.000007
0.999999 0.000005 3.000009
1.000000 1.000001 3.000008
1.000000 1.999999 3.000008
0.999999 2.999995 3.000009
1.999993 0.000003 -0.000008
1.999993 1.000000 -0.000008
1.999993 2.000000 -0.000008
1.999993 2.999997 -0.000008
2.000003 0.000001 0.999995
2.000004 1.000001 0.999995
2.000004 1.999999 0.999995
2.000003 2.999999 0.999995
1.999997 -0.000001 1.999995
1.999996 0.999999 1.999995
1.999996 2.000001 1.999995
1.999997 3.000001 1.999995
2.000007 -0.000003 2.999992
2.000007 1.000000 2.999992
2.000007 2.000000 2.999992
2.000007 3.000003 2.999992
3.000011 0.000013 -0.000033
3.000013 1.000006 -0.000026
3.000013 1.999994 -0.000026
3.000011 2.999987 -0.000033
2.999989 0.000000 0.999975
2.999991 1.000000 0.999979
2.999991 2.000000 0.999979
2.999989 3.000000 0.999975
3.000011 -0.000000 1.999975
3.000009 1.000000 1.999979
3.000009 2.000000 1.999979
3.000011 3.000000 1.999975
2.999989 -0.000013 2.999967
2.999987 0.999994 2.999974
2.999987 2.000006 2.999974
2.999989 3.000013 2.999967
3.999977 -0.000034 0.000082
3.999988 0.999989 0.000069
3.999988 2.000011 0.000069
3.999977 3.000034 0.000082
3.999986 -0.000008 1.000082
3.999990 0.999997 1.000071
3.999990 2.000003 1.000071
3.999986 3.000008 1.000082
4.000014 0.000008 2.000082
4.000010 1.000003 2.000071
4.000010 1.999997 2.000071
4.000014 2.999992 2.000082
4.000023 0.000034 3.000082
4.000012 1.000011 3.000069
4.000012 1.999989 3.000069
4.000023 2.999966 3.000082
4.999938 -0.000033 0.000034
4.999932 0.999984 0.000013
4.999932 2.000016 0.000013
4.999938 3.000033 0.000034
4.999987 -0.000007 1.000031
4.999986 0.999997 1.000015
4.999986 2.000003 1.000015
4.999987 3.000007 1.000031
5.000013 0.000007 2.000031
5.000014 1.000003 2.000015
5.000014 1.999997 2.000015
5.000013 2.999993 2.000031
5.000062 0.000033 3.000034
5.000068 1.000016 3.000013
5.000068 1.999984 3.000013
5.000062 2.999967 3.000034
5.999946 0.000016 -0.000069
5.999929 1.000007 -0.000063
5.999929 1.999993 -0.000063
5.999946 2.999984 -0.000069
5.999983 0.000001 0.999938
5.999975 1.000000 0.999939
5.999975 2.000000 0.999939
5.999983 2.999999 0.999938
6.000017 -0.000001 1.999938
6.000025 1.000000 1.999939
6.000025 2.000000 1.999939
6.000017 3.000001 1.999938
6.000054 -0.000016 2.999931
6.000071 0.999993 2.999937
6.000071 2.000007 2.999937
6.000054 3.000016 2.999931
6.999938 0.000018 -0.000105
6.999939 1.000010 -0.000092
6.999939 1.999990 -0.000092
6.999938 2.999982 -0.000105
6.999985 0.000005 0.999895
6.999983 1.000003 0.999905
6.999983 1.999997 0.999905
6.999985 2.999995 0.999895
7.000015 -0.000005 1.999895
7.000017 0.999997 1.999905
7.000017 2.000003 1.999905
7.000015 3.000005 1.999895
7.000062 -0.000018 2.999895
7.000061 0.999990 2.999908
7.000061 2.000010 2.999908
7.000062 3.000018 2.999895
7.999956 0.000010 -0.000174
7.999961 1.000004 -0.000168
7.999961 1.999996 -0.000168
7.999956 2.999990 -0.000174
7.999986 0.000005 0.999819
7.999988 1.000002 0.999829
7.999988 1.999998 0.999829
7.999986 2.999995 0.999819
8.000014 -0.000005 1.999819
8.000012 0.999998 1.999829
8.000012 2.000002 1.999829
8.000014 3.000005 1.999819
8.000044 -0.000010 2.999826
8.000039 0.999996 2.999832
8.000039 2.000004 2.999832
8.000044 3.000010 2.999826
8.999977 0.000007 -0.000158
8.999979 1.000001 -0.000156
8.999979 1.999999 -0.000156
8.999977 2.999993 -0.000158
8.999995 0.000003 0.999836
8.999997 1.000000 0.999840
8.999997 2.000000 0.999840
8.999995 2.999997 0.999836
9.000005 -0.000003 1.999836
9.000003 1.000000 1.999840
9.000003 2.000000 1.999840
9.000005 3.000003 1.999836
9.000023 -0.000007 2.999842
9.000021 0.999999 2.999844
9.000021 2.000001 2.999844
9.000023 3.000007 2.999842
10.000002 0.000005 -0.000209
10.000002 1.000002 -0.000207
10.000002 1.999998 -0.000207
10.000002 2.999995 -0.000209
10.000003 0.000001 0.999787
10.000002 1.000001 0.999788
10.000002 1.999999 0.999788
10.000003 2.999999 0.999787
9.999997 -0.000001 1.999787
9.999998 0.999999 1.999788
9.999998 2.000001 1.999788
9.999997 3.000001 1.999787
9.999998 -0.000005 2.999791
9.999998 0.999998 2.999793
9.999998 2.000002 2.999793
9.999998 3.000005 2.999791
11.000016 0.000005 -0.000160
11.000018 1.000002 -0.000157
11.000018 1.999998 -0.000157
11.000016 2.999995 -0.000160
11.000001 0.000002 0.999843
11.000001 1.000001 0.999846
11.000001 1.999999 0.999846
11.000001 2.999998 0.999843
10.999999 -0.000002 1.999843
10.999999 0.999999 1.999846
10.999999 2.000001 1.999846
10.999999 3.000002 1.999843
10.999984 -0.000005 2.999840
10.999982 0.999998 2.999843
10.999982 2.000002 2.999843
10.999984 3.000005 2.999840
12.000025 0.000002 -0.000169
12.000019 0.999999 -0.000165
12.000019 2.000001 -0.000165
12.000025 2.999998 -0.000169
12.000004 0.000002 0.999825
12.000003 1.000001 0.999834
12.000003 1.999999 0.999834
12.000004 2.999998 0.999825
11.999996 -0.000002 1.999825
11.999997 0.999999 1.999834
11.999997 2.000001 1.999834
11.999996 3.000002 1.999825
11.999975 -0.000002 2.999831
11.999981 1.000001 2.999835
11.999981 1.999999 2.999835
11.999975 3.000002 2.999831
13.000082 0.000030 -0.000111
13.000076 1.000009 -0.000098
13.000076 1.999991 -0.000098
13.000082 2.999970 -0.000111
13.000016 0.000006 0.999879
13.000017 1.000002 0.999879
13.000017 1.999998 0.999879
13.000016 2.999994 0.999879
12.999984 -0.000006 1.999879
12.999983 0.999998 1.999879
12.999983 2.000002 1.999879
12.999984 3.000006 1.999879
12.999918 -0.000030 2.999889
12.999924 0.999991 2.999902
12.999924 2.000009 2.999902
12.999918 3.000030 2.999889
14.000158 0.000048 -0.000042
14.000176 1.000014 -0.000032
14.000176 1.999986 -0.000032
14.000158 2.999952 -0.000042
14.000025 0.000008 0.999968
14.000034 1.000001 0.999961
14.000034 1.999999 0.999961
14.000025 2.999992 0.999968
13.999975 -0.000008 1.999968
13.999966 0.999999 1.999961
13.999966 2.000001 1.999961
13.999975 3.000008 1.999968
13.999842 -0.000048 2.999958
13.999824 0.999986 2.999968
13.999824 2.000014 2.999968
13.999842 3.000048 2.999958
15.000224 -0.000018 0.000160
15.000259 0.999994 0.000153
15.000259 2.000006 0.000153
15.000224 3.000018 0.000160
15.000036 -0.000020 1.000091
15.000051 0.999993 1.000075
15.000051 2.000007 1.000075
15.000036 3.000020 1.000091
14.999964 0.000020 2.000091
14.999949 1.000007 2.000075
14.999949 1.999993 2.000075
14.999964 2.999980 2.000091
14.999776 0.000018 3.000160
14.999741 1.000006 3.000153
14.999741 1.999994 3.000153
14.999776 2.999982 3.000160
CELLS 135 1215
8 0 1 5 4
16 17 21 20 8
1 2 6 5 17
18 22 21 8 2
3 7 6 18 19
23 22 8 4 5
9 8 20 21 25
24 8 5 6 10
9 21 22 26 25
8 6 7 11 10
22 23 27 26 8
8 9 13 12 24
25 29 28 8 9
10 14 13 25 26
30 29 8 10 11
15 14 26 27 31
30 8 16 17 21
20 32 33 37 36
8 17 18 22 21
33 34 38 37 8
18 19 23 22 34
35 39 38 8 20
21 25 24 36 37
41 40 8 21 22
26 25 37 38 42
41 8 22 23 27
26 38 39 43 42
8 24 25 29 28
40 41 45 44 8
25 26 30 29 41
42 46 45 8 26
27 31 30 42 43
47 46 8 32 33
37 36 48 49 53
52 8 33 34 38
37 49 50 54 53
8 34 35 39 38
50 51 55 54 8
36 37 41 40 52
53 57 56 8 37
38 42 41 53 54
58 57 8 38 39
43 42 54 55 59
58 8 40 41 45
44 56 57 61 60
8 41 42 46 45
57 58 62 61 8
42 43 47 46 58
59 63 62 8 48
49 53 52 64 65
69 68 8 49 50
54 53 65 66 70
69 8 50 51 55
54 66 67 71 70
8 52 53 57 56
68 69 73 72 8
53 54 58 57 69
70 74 73 8 54
55 59 58 70 71
75 74 8 56 57
61 60 72 73 77
76 8 57 58 62
61 73 74 78 77
8 58 59 63 62
74 75 79 78 8
64 65 69 68 80
81 85 84 8 65
66 70 69 81 82
86 85 8 66 67
71 70 82 83 87
86 8 68 69 73
72 84 85 89 88
8 69 70 74 73
85 86 90 89 8
70 71 75 74 86
87 91 90 8 72
73 77 76 88 89
93 92 8 73 74
78 77 89 90 94
93 8 74 75 79
78 90 91 95 94
8 80 81 85 84
96 97 101 100 8
81 82 86 85 97
98 102 101 8 82
83 87 86 98 99
103 102 8 84 85
89 88 100 101 105
104 8 85 86 90
89 101 102 106 105
8 86 87 91 90
102 103 107 106 8
88 89 93 92 104
105 109 108 8 89
90 94 93 105 106
110 109 8 90 91
95 94 106 107 111
110 8 96 97 101
100 112 113 117 116
8 97 98 102 101
113 114 118 117 8
98 99 103 102 114
115 119 118 8 100
101 105 104 116 117
121 120 8 101 102
106 105 117 118 122
121 8 102 103 107
106 118 119 123 122
8 104 105 109 108
120 121 125 124 8
105 106 110 109 121
122 126 125 8 106
107 111 110 122 123
127 126 8 112 113
117 116 128 129 133
132 8 113 114 118
117 129 130 134 133
8 114 115 119 118
130 131 135 134 8
116 117 121 120 132
133 137 136 8 117
118 122 121 133 134
138 137 8 118 119
123 122 134 135 139
138 8 120 121 125
124 136 137 141 140
8 121 122 126 125
137 138 142 141 8
122 123 127 126 138
139 143 142 8 128
129 133 132 144 145
149 148 8 129 130
134 133 145 146 150
149 8 130 131 135
134 146 147 151 150
8 132 133 137 136
148 149 153 152 8
133 134 138 137 149
150 154 153 8 134
135 139 138 150 151
155 154 8 136 137
141 140 152 153 157
156 8 137 138 142
141 153 154 158 157
8 138 139 143 142
154 155 159 158 8
144 145 149 148 160
161 165 164 8 145
146 150 149 161 162
166 165 8 146 147
151 150 162 163 167
166 8 148 149 153
152 164 165 169 168
8 149 150 154 153
165 166 170 169 8
150 151 155 154 166
167 171 170 8 152
153 157 156 168 169
173 172 8 153 154
158 157 169 170 174
173 8 154 155 159
158 170 171 175 174
8 160 161 165 164
176 177 181 180 8
161 162 166 165 177
178 182 181 8 162
163 167 166 178 179
183 182 8 164 165
169 168 180 181 185
184 8 165 166 170
169 181 182 186 185
8 166 167 171 170
182 183 187 186 8
168 169 173 172 184
185 189 188 8 169
170 174 173 185 186
190 189 8 170 171
175 174 186 187 191
190 8 176 177 181
180 192 193 197 196
8 177 178 182 181
193 194 198 197 8
178 179 183 182 194
195 199 198 8 180
181 185 184 196 197
201 200 8 181 182
186 185 197 198 202
201 8 182 183 187
186 198 199 203 202
8 184 185 189 188
200 201 205 204 8
185 186 190 189 201
202 206 205 8 186
187 191 190 202 203
207 206 8 192 193
197 196 208 209 213
212 8 193 194 198
197 209 210 214 213
8 194 195 199 198
210 211 215 214 8
196 197 201 200 212
213 217 216 8 197
198 202 201 213 214
218 217 8 198 199
203 202 214 215 219
218 8 200 201 205
204 216 217 221 220
8 201 202 206 205
217 218 222 221 8
202 203 207 206 218
219 223 222 8 208
209 213 212 224 225
229 228 8 209 210
214 213 225 226 230
229 8 210 211 215
214 226 227 231 230
8 212 213 217 216
228 229 233 232 8
213 214 218 217 229
230 234 233 8 214
215 219 218 230 231
235 234 8 216 217
221 220 232 233 237
236 8 217 218 222
221 233 234 238 237
8 218 219 223 222
234 235 239 238 8
224 225 229 228 240
241 245 244 8 225
226 230 229 241 242
246 245 8 226 227
231 230 242 243 247
246 8 228 229 233
232 244 245 249 248
8 229 230 234 233
245 246 250 249 8
230 231 235 234 246
247 251 250 8 232
233 237 236 248 249
253 252 8 233 234
238 237 249 250 254
253 8 234 235 239
238 250 251 255 254
CELL_TYPES 135
12
12
12
12
12
12
12
12
12
12
12
12
12
12
12
12
12
12
12
12
12
12
12
12
12
12
12
12
12
12
12
12
12
12
12
12
12
12
12
12
12
12
12
12
12
12
12
12
12
12
12
12
12
12
12
12
12
12
12
12
12
12
12
12
12
12
12
12
12
12
12
12
12
12
12
12
12
12
12
12
12
12
12
12
12
12
12
12
12
12
12
12
12
12
12
12
12
12
12
12
12
12
12
12
12
12
12
12
12
12
12
12
12
12
12
12
12
12
12
12
12
12
12
12
12
12
12
12
12
12
12
12
12
12
12
POINT_DATA 256
SCALARS var1 float
LOOKUP_TABLE default
0.000000
0.100000
0.200000
0.300000
0.400000
0.500000
0.600000
0.700000
0.800000
0.900000
1.000000
1.100000
1.200000
1.300000
1.400000
1.500000
1.600000
1.700000
1.800000
1.900000
2.000000
2.100000
2.200000
2.300000
2.400000
2.500000
2.600000
2.700000
2.800000
2.900000
3.000000
3.100000
3.200000
3.300000
3.400000
3.500000
3.600000
3.700000
3.800000
3.900000
4.000000
4.100000
4.200000
4.300000
4.400000
4.500000
4.600000
4.700000
4.800000
4.900000
5.000000
5.100000
5.200000
5.300000
5.400000
5.500000
5.600000
5.700000
5.800000
5.900000
6.000000
6.100000
6.200000
6.300000
6.400000
6.500000
6.600000
6.700000
6.800000
6.900000
7.000000
7.100000
7.200000
7.300000
7.400000
7.500000
7.600000
7.700000
7.800000
7.900000
8.000000
8.100000
8.200000
8.300000
8.400000
8.500000
8.600000
8.700000
8.800000
8.900000
9.000000
9.100000
9.200000
9.300000
9.400000
9.500000
9.600000
9.700000
9.800000
9.900000
10.000000
10.100000
10.200000
10.300000
10.400000
10.500000
10.600000
10.700000
10.800000
10.900000
11.000000
11.100000
11.200000
11.300000
11.400000
11.500000
11.600000
11.700000
11.800000
11.900000
12.000000
12.100000
12.200000
12.300000
12.400000
12.500000
12.600000
12.700000
12.800000
12.900000
13.000000
13.100000
13.200000
13.300000
13.400000
13.500000
13.600000
13.700000
13.800000
13.900000
14.000000
14.100000
14.200000
14.300000
14.400000
14.500000
14.600000
14.700000
14.800000
14.900000
15.000000
15.100000
15.200000
15.300000
15.400000
15.500000
15.600000
15.700000
15.800000
15.900000
16.000000
16.100000
16.200000
16.300000
16.400000
16.500000
16.600000
16.700000
16.800000
16.900000
17.000000
17.100000
17.200000
17.300000
17.400000
17.500000
17.600000
17.700000
17.800000
17.900000
18.000000
18.100000
18.200000
18.300000
18.400000
18.500000
18.600000
18.700000
18.800000
18.900000
19.000000
19.100000
19.200000
19.300000
19.400000
19.500000
19.600000
19.700000
19.800000
19.900000
20.000000
20.100000
20.200000
20.300000
20.400000
20.500000
20.600000
20.700000
20.800000
20.900000
21.000000
21.100000
21.200000
21.300000
21.400000
21.500000
21.600000
21.700000
21.800000
21.900000
22.000000
22.100000
22.200000
22.300000
22.400000
22.500000
22.600000
22.700000
22.800000
22.900000
23.000000
23.100000
23.200000
23.300000
23.400000
23.500000
23.600000
23.700000
23.800000
23.900000
24.000000
24.100000
24.200000
24.300000
24.400000
24.500000
24.600000
24.700000
24.800000
24.900000
25.000000
25.100000
25.200000
25.300000
25.400000
25.500000
