# vtk DataFile Version 2.0
Generated Volume Mesh
ASCII
DATASET UNSTRUCTURED_GRID
POINTS 2428 float
-1.032191 1.210302 0.319681
-0.003675 1.242079 0.035909
-0.003969 1.122124 0.032562
-1.033423 1.093825 0.290802
-1.117388 1.179136 0.427010
-1.118753 1.065540 0.388409
-1.117367 1.178655 0.428371
-1.022131 1.027126 0.479415
-1.020798 1.135893 0.530132
0.005097 1.040996 0.678966
0.004080 0.941525 0.611832
-0.000210 1.000298 0.735669
-0.001412 0.905077 0.662645
-1.251054 1.006447 0.754396
-1.252840 0.911232 0.681356
-1.307533 1.023851 0.732512
-1.309314 0.926859 0.661843
-1.309782 0.927190 0.661400
-1.308000 1.024220 0.732016
-1.307071 0.936511 0.838463
-1.308932 0.848638 0.756737
-1.308473 0.849014 0.756323
-1.306612 0.936931 0.838000
-1.250504 0.955584 0.816131
-1.252347 0.865677 0.736646
0.000588 0.949440 0.797412
-0.000699 0.859525 0.717946
0.007337 0.901686 0.848165
0.005989 0.816743 0.763388
-1.014962 0.761410 0.987375
-1.017083 0.690992 0.890206
-1.021934 0.567415 1.100946
-1.024249 0.517221 0.991944
0.011078 0.308355 1.167745
0.009279 0.283470 1.050349
0.010789 0.241198 1.179903
0.009085 0.223190 1.061253
-1.023714 -0.019556 1.205848
-1.025654 -0.011398 1.086119
-1.025182 -0.239598 1.169286
-1.027019 -0.208672 1.053342
0.006280 -0.490560 1.058267
0.004927 -0.435525 0.951614
0.005921 -0.550317 1.025227
0.004523 -0.489218 0.921919
-1.028214 -0.769832 0.876463
-1.029747 -0.687876 0.788765
-1.115166 -0.847612 0.798015
-1.116660 -0.758546 0.717568
-1.115168 -0.848567 0.796932
-1.021463 -0.820150 0.638589
-1.020164 -0.917461 0.708870
0.005286 -1.004822 0.548399
0.004283 -0.897651 0.494350
0.000264 -1.034555 0.485079
-0.001055 -0.924280 0.437631
-1.250623 -1.064801 0.471103
-1.253187 -0.954559 0.423631
-1.307523 -1.054815 0.496377
-1.310014 -0.945779 0.446204
-1.310489 -0.945559 0.446704
-1.308000 -1.054568 0.496936
-1.305179 -1.104690 0.368419
-1.307977 -0.990449 0.331594
-1.307524 -0.990265 0.332130
-1.304727 -1.104486 0.369016
-1.248993 -1.093869 0.396566
-1.251728 -0.980593 0.356873
0.001403 -1.063555 0.410538
-0.000040 -0.950347 0.370868
0.008367 -1.084548 0.343920
0.007023 -0.969037 0.311281
-1.012146 -1.139229 0.139837
-1.014435 -1.019987 0.126254
-1.014463 -1.142816 -0.085078
-1.017518 -1.023207 -0.075205
0.025149 -1.067889 -0.316768
0.021546 -0.953427 -0.280679
0.026617 -1.045461 -0.381237
0.022893 -0.933309 -0.338511
-1.002212 -0.947766 -0.650666
-1.007055 -0.847816 -0.584235
-1.000465 -0.806948 -0.823706
-1.005495 -0.721595 -0.739335
0.031757 -0.570326 -0.959930
0.026908 -0.505919 -0.858657
0.030866 -0.511762 -0.994899
0.025919 -0.453481 -0.889973
-1.008969 -0.308963 -1.127664
-1.014065 -0.276562 -1.012114
-0.001455 0.212589 -1.133809
0.006504 0.143100 -1.140176
0.003545 0.135243 -1.020398
-0.004415 0.197623 -1.014754
-1.252113 0.181573 -1.176257
-1.256064 0.166609 -1.057181
-1.307555 0.151950 -1.181517
-1.311590 0.139926 -1.062113
-1.312037 0.139360 -1.062185
-1.308000 0.151320 -1.181596
-1.312311 0.287491 -1.159649
-1.315903 0.261324 -1.042525
-1.315422 0.260792 -1.042629
-1.311827 0.286896 -1.159767
-1.254616 0.260546 -1.163526
-1.258307 0.237339 -1.045780
-0.003717 0.291552 -1.121094
-0.006451 0.268376 -1.003371
0.000432 0.359902 -1.105405
-0.002184 0.329696 -0.989230
-1.026999 0.529933 -1.070709
-1.029558 0.482399 -0.960505
-1.038473 0.726643 -0.962183
-1.040467 0.658669 -0.863295
-0.008980 0.932846 -0.769318
-0.009564 0.844554 -0.688023
-0.009497 0.977674 -0.717659
-0.010029 0.884766 -0.641640
-1.042736 1.127934 -0.493843
-1.043455 1.020360 -0.440649
-1.041238 1.207066 -0.285207
-1.041912 1.091244 -0.253773
-0.004889 1.241997 -0.032405
-0.004985 1.122052 -0.028648
-1.022231 1.184087 -0.359460
0.013382 1.236940 -0.110127
0.013352 1.117515 -0.098326
-1.022928 1.070638 -0.320274
-1.022632 1.159802 -0.423282
-1.023442 1.048885 -0.377421
0.009619 1.024745 -0.655838
0.009121 0.926965 -0.586252
0.011297 0.878437 -0.824406
0.010581 0.795837 -0.737334
-1.017607 0.661384 -1.003516
-1.019784 0.600159 -0.900266
-1.014069 0.601193 -1.036700
-1.016541 0.546211 -0.930026
0.012616 0.435612 -1.082630
0.010171 0.397637 -0.968801
0.084518 0.254271 -1.125750
0.081720 0.235191 -1.007253
0.023145 0.064841 -1.142278
0.019937 0.065101 -1.022280
-0.992943 -0.166154 -1.157318
-0.997294 -0.148693 -1.038593
-1.025067 -0.180041 -1.034536
-1.020400 -0.201122 -1.152711
-0.997275 -0.208138 -1.028021
-0.992434 -0.232701 -1.145486
0.048975 -0.442030 -1.029714
0.044109 -0.390967 -0.921106
0.052145 -0.633733 -0.915582
0.047178 -0.562664 -0.818873
-0.981289 -0.859084 -0.766119
-0.986311 -0.768245 -0.687668
-0.981829 -0.902180 -0.713155
-0.986787 -0.806910 -0.640155
0.047699 -1.014984 -0.452188
0.043775 -0.905985 -0.401957
0.042877 -1.088295 -0.241454
0.039440 -0.971668 -0.213142
-0.996776 -1.146140 -0.007111
-0.999663 -1.026145 -0.005318
-0.996135 -1.145154 0.061644
-0.998693 -1.025263 0.056262
0.023769 -1.103123 0.267587
0.022222 -0.985652 0.242982
0.087939 -1.048419 0.448897
0.086632 -0.936582 0.405311
0.018458 -0.966798 0.617557
0.017523 -0.863560 0.556316
-1.006183 -0.869060 0.771033
-1.007519 -0.776769 0.694265
-1.036593 -0.757249 0.717507
-1.035143 -0.847274 0.796945
-1.010126 -0.736817 0.739488
-1.008572 -0.824505 0.821453
0.025023 -0.615687 0.983283
0.023670 -0.547786 0.884305
0.026287 -0.420445 1.091254
0.024860 -0.372735 0.981120
-1.005049 -0.164105 1.186436
-1.006951 -0.141016 1.068662
-1.004617 -0.096810 1.197639
-1.006546 -0.080588 1.078734
0.030004 0.164059 1.188685
0.028319 0.154073 1.069103
0.030836 0.383544 1.148837
0.028970 0.350791 1.033393
-1.002594 0.636622 1.065799
-1.004913 0.579206 0.960422
-1.000499 0.696003 1.031122
-1.002720 0.632426 0.929356
0.022232 0.844179 0.901743
0.020754 0.765229 0.811368
0.087322 0.975305 0.765756
0.086112 0.882670 0.689462
0.018411 1.082764 0.612034
0.017437 0.978925 0.551883
-1.007888 1.166656 0.457429
-1.009139 1.054684 0.414242
-1.038670 1.065316 0.386210
-1.037342 1.178529 0.426139
-1.012662 1.074744 0.357247
-1.011284 1.189003 0.393914
0.017236 1.237276 0.112975
0.016793 1.117817 0.101574
0.102165 1.122386 0.000008
0.102303 1.242425 0.000009
0.022152 1.122505 0.001479
0.022316 1.242496 0.001311
-1.105068 -0.184504 -1.036926
-1.100469 -0.205662 -1.155013
-1.100529 -0.204238 -1.155266
-1.010546 -0.088540 -1.166505
-1.014519 -0.079301 -1.046873
-1.105123 -0.183233 -1.037152
-0.518309 1.232741 0.178580
-0.519230 1.113839 0.162427
-1.093509 1.200334 0.359460
-1.096844 1.084292 0.329034
-1.091787 1.042254 0.447458
-1.088597 1.151872 0.496161
-0.508205 1.091389 0.605592
-0.509199 0.986940 0.546500
0.034331 1.019379 0.709468
0.033204 0.921971 0.639379
-0.834029 1.003603 0.748112
-0.417115 1.001452 0.741812
-0.418602 0.906237 0.668774
-0.835744 0.908398 0.675074
-0.416395 0.950605 0.803555
-0.833431 0.952753 0.809848
-0.835208 0.862838 0.730365
-0.417956 0.860674 0.724072
0.035800 0.927836 0.820623
0.034476 0.840385 0.738447
-0.504097 0.833135 0.920351
-0.505771 0.755228 0.829077
-1.085678 0.605798 1.083767
-1.109300 0.670152 1.049188
-1.081660 0.730689 1.010414
-1.085821 0.661808 0.912107
-1.111514 0.610936 0.944773
-1.090139 0.553989 0.975574
-0.505646 0.440275 1.140669
-0.507746 0.402539 1.026766
0.037554 0.274704 1.173951
0.035789 0.253256 1.055863
-0.506862 0.111214 1.199628
-0.508600 0.106277 1.079739
-1.100460 -0.178996 1.184968
-1.100183 -0.081636 1.201152
-1.097302 -0.058827 1.082973
-1.106432 -0.145968 1.069339
-0.510008 -0.367970 1.119904
-0.511496 -0.324717 1.007973
0.032717 -0.520662 1.041849
0.031326 -0.462565 0.936803
-0.511718 -0.663331 0.957119
-0.513283 -0.591421 0.861027
-1.090184 -0.799148 0.849146
-1.093793 -0.716012 0.762605
-1.090626 -0.799023 0.668151
-1.087469 -0.895018 0.740148
-0.508155 -0.964591 0.629089
-0.509064 -0.862046 0.566710
0.034661 -1.020891 0.514678
0.033502 -0.912145 0.463878
-0.833559 -1.053367 0.475879
-0.416619 -1.042797 0.480693
-0.418732 -0.932487 0.433238
-0.836044 -0.943130 0.428419
-0.415107 -1.071816 0.406149
-0.831961 -1.082438 0.401348
-0.834610 -0.969156 0.361657
-0.417372 -0.958552 0.366445
0.036680 -1.073241 0.380439
0.035297 -0.958789 0.344260
-0.502520 -1.114722 0.243697
-0.504141 -0.996954 0.220553
-1.079123 -1.146975 -0.044563
-1.104270 -1.148561 0.028018
-1.078099 -1.144437 0.100398
-1.082481 -1.024973 0.088678
-1.106958 -1.028521 0.027772
-1.084254 -1.027276 -0.036538
-0.494966 -1.112343 -0.202927
-0.498368 -0.994595 -0.179784
0.052516 -1.056579 -0.348346
0.048832 -0.943217 -0.308925
-0.487975 -1.002359 -0.519130
-0.492200 -0.895656 -0.464218
-1.076490 -0.851425 -0.780929
-1.077615 -0.913729 -0.704382
-1.077918 -0.822328 -0.625876
-1.085727 -0.767390 -0.695049
-0.484311 -0.693951 -0.896932
-0.489114 -0.618600 -0.803527
0.057939 -0.540415 -0.977095
0.053039 -0.479041 -0.873951
-0.488689 -0.411563 -1.067985
-0.493932 -0.365891 -0.957028
0.034298 0.181537 -1.136362
0.031327 0.170177 -1.016890
-0.835070 0.192158 -1.161019
-0.418212 0.202559 -1.146615
-0.421722 0.187589 -1.027549
-0.838934 0.177189 -1.041964
-0.420598 0.281535 -1.133913
-0.837573 0.271126 -1.148311
-0.841175 0.247921 -1.030557
-0.423860 0.258335 -1.016128
0.030283 0.323784 -1.113488
0.027624 0.297044 -0.996493
-0.513975 0.444522 -1.091665
-0.516631 0.405586 -0.978156
-1.101362 0.691172 -0.986993
-1.123524 0.628159 -1.024863
-1.094453 0.564348 -1.056786
-1.098952 0.515060 -0.947318
-1.125771 0.568740 -0.920546
-1.105608 0.624681 -0.887144
-0.524579 0.834721 -0.869670
-0.525656 0.756081 -0.779027
0.017380 0.955670 -0.743574
0.016810 0.865015 -0.664890
-0.527049 1.058005 -0.611147
-0.527651 0.957158 -0.546100
-1.117403 1.189798 -0.344300
-1.118411 1.154816 -0.436618
-1.114476 1.041232 -0.396934
-1.122338 1.073230 -0.314610
-0.523877 1.231324 -0.158599
-0.524071 1.112639 -0.140854
-0.504328 1.217229 -0.234855
-0.504599 1.100023 -0.209178
-1.049036 1.172628 -0.391422
-1.049788 1.060394 -0.348881
-0.506303 1.097558 -0.544777
-0.507097 0.992587 -0.486707
0.086473 0.922429 -0.779752
0.086053 0.987100 -0.705261
0.080782 0.898377 -0.624096
0.089964 0.841055 -0.691104
[...]
POINT_DATA 2428
SCALARS var1 float
LOOKUP_TABLE default
0.000000
0.000100
0.000200
0.000300
0.000400
0.000500
0.000600
0.000700
0.000800
0.000900
0.001000
0.001100
0.001200
0.001300
0.001400
0.001500
0.001600
0.001700
0.001800
0.001900
0.002000
0.002100
0.002200
0.002300
0.002400
0.002500
0.002600
0.002700
0.002800
0.002900
0.003000
0.003100
0.003200
0.003300
0.003400
0.003500
0.003600
0.003700
0.003800
0.003900
0.004000
0.004100
0.004200
0.004300
0.004400
0.004500
0.004600
0.004700
0.004800
0.004900
0.005000
0.005100
0.005200
0.005300
0.005400
0.005500
0.005600
0.005700
0.005800
0.005900
0.006000
0.006100
0.006200
0.006300
0.006400
0.006500
0.006600
0.006700
0.006800
0.006900
0.007000
0.007100
0.007200
0.007300
0.007400
0.007500
0.007600
0.007700
0.007800
0.007900
0.008000
0.008100
0.008200
0.008300
0.008400
0.008500
0.008600
0.008700
0.008800
0.008900
0.009000
0.009100
0.009200
0.009300
0.009400
0.009500
0.009600
0.009700
0.009800
0.009900
0.010000
0.010100
0.010200
0.010300
0.010400
0.010500
0.010600
0.010700
0.010800
0.010900
0.011000
0.011100
0.011200
0.011300
0.011400
0.011500
0.011600
0.011700
0.011800
0.011900
0.012000
0.012100
0.012200
0.012300
0.012400
0.012500
0.012600
0.012700
0.012800
0.012900
0.013000
0.013100
0.013200
0.013300
0.013400
0.013500
0.013600
0.013700
0.013800
0.013900
0.014000
0.014100
0.014200
0.014300
0.014400
0.014500
0.014600
0.014700
0.014800
0.014900
0.015000
0.015100
0.015200
0.015300
0.015400
0.015500
0.015600
0.015700
0.015800
0.015900
0.016000
0.016100
0.016200
0.016300
0.016400
0.016500
0.016600
0.016700
0.016800
0.016900
0.017000
0.017100
0.017200
0.017300
0.017400
0.017500
0.017600
0.017700
0.017800
0.017900
0.018000
0.018100
0.018200
0.018300
0.018400
0.018500
0.018600
0.018700
0.018800
0.018900
0.019000
0.019100
0.019200
0.019300
0.019400
0.019500
0.019600
0.019700
0.019800
0.019900
0.020000
0.020100
0.020200
0.020300
0.020400
0.020500
0.020600
0.020700
0.020800
0.020900
0.021000
0.021100
0.021200
0.021300
0.021400
0.021500
0.021600
0.021700
0.021800
0.021900
0.022000
0.022100
0.022200
0.022300
0.022400
0.022500
0.022600
0.022700
0.022800
0.022900
0.023000
0.023100
0.023200
0.023300
0.023400
0.023500
0.023600
0.023700
0.023800
0.023900
0.024000
0.024100
0.024200
0.024300
0.024400
0.024500
0.024600
0.024700
0.024800
0.024900
0.025000
0.025100
0.025200
0.025300
0.025400
0.025500
0.025600
0.025700
0.025800
0.025900
0.026000
0.026100
0.026200
0.026300
0.026400
0.026500
0.026600
0.026700
0.026800
0.026900
0.027000
0.027100
0.027200
0.027300
0.027400
0.027500
0.027600
0.027700
0.027800
0.027900
0.028000
0.028100
0.028200
0.028300
0.028400
0.028500
0.028600
0.028700
0.028800
0.028900
0.029000
0.029100
0.029200
0.029300
0.029400
0.029500
0.029600
0.029700
0.029800
0.029900
0.030000
0.030100
0.030200
0.030300
0.030400
0.030500
0.030600
0.030700
0.030800
0.030900
0.031000
0.031100
0.031200
0.031300
0.031400
0.031500
0.031600
0.031700
0.031800
0.031900
0.032000
0.032100
0.032200
0.032300
0.032400
0.032500
0.032600
0.032700
0.032800
0.032900
0.033000
0.033100
0.033200
0.033300
0.033400
0.033500
0.033600
0.033700
0.033800
0.033900
0.034000
0.034100
0.034200
0.034300
0.034400
0.034500
0.034600
0.034700
0.034800
0.034900
0.035000
0.035100
0.035200
0.035300
0.035400
0.035500
0.035600
0.035700
0.035800
0.035900
0.036000
0.036100
0.036200
0.036300
0.036400
0.036500
0.036600
0.036700
0.036800
0.036900
0.037000
0.037100
0.037200
0.037300
0.037400
0.037500
0.037600
0.037700
0.037800
0.037900
0.038000
0.038100
0.038200
0.038300
0.038400
0.038500
0.038600
0.038700
0.038800
0.038900
0.039000
0.039100
0.039200
0.039300
0.039400
0.039500
0.039600
0.039700
0.039800
0.039900
0.040000
0.040100
0.040200
0.040300
0.040400
0.040500
0.040600
0.040700
0.040800
0.040900
0.041000
0.041100
0.041200
0.041300
0.041400
0.041500
0.041600
0.041700
0.041800
0.041900
0.042000
0.042100
0.042200
0.042300
0.042400
0.042500
0.042600
0.042700
0.042800
0.042900
0.043000
0.043100
0.043200
0.043300
0.043400
0.043500
0.043600
0.043700
0.043800
0.043900
0.044000
0.044100
0.044200
0.044300
0.044400
0.044500
0.044600
0.044700
0.044800
0.044900
0.045000
0.045100
0.045200
0.045300
0.045400
0.045500
0.045600
0.045700
0.045800
0.045900
0.046000
0.046100
0.046200
0.046300
0.046400
0.046500
0.046600
0.046700
0.046800
0.046900
0.047000
0.047100
0.047200
0.047300
0.047400
0.047500
0.047600
0.047700
0.047800
0.047900
0.048000
0.048100
0.048200
0.048300
0.048400
0.048500
0.048600
0.048700
0.048800
0.048900
0.049000
0.049100
0.049200
0.049300
0.049400
0.049500
0.049600
0.049700
0.049800
0.049900
0.050000
0.050100
0.050200
0.050300
0.050400
0.050500
0.050600
0.050700
0.050800
0.050900
0.051000
0.051100
0.051200
0.051300
0.051400
0.051500
0.051600
0.051700
0.051800
0.051900
0.052000
0.052100
0.052200
0.052300
0.052400
0.052500
0.052600
0.052700
0.052800
0.052900
0.053000
0.053100
0.053200
0.053300
0.053400
0.053500
0.053600
0.053700
0.053800
0.053900
0.054000
0.054100
0.054200
0.054300
0.054400
0.054500
0.054600
0.054700
0.054800
0.054900
0.055000
0.055100
0.055200
0.055300
0.055400
0.055500
0.055600
0.055700
0.055800
0.055900
0.056000
0.056100
0.056200
0.056300
0.056400
0.056500
0.056600
0.056700
0.056800
0.056900
0.057000
0.057100
0.057200
0.057300
0.057400
0.057500
0.057600
0.057700
0.057800
0.057900
0.058000
0.058100
0.058200
0.058300
0.058400
0.058500
0.058600
0.058700
0.058800
0.058900
0.059000
0.059100
0.059200
0.059300
0.059400
0.059500
0.059600
0.059700
0.059800
0.059900
0.060000
0.060100
0.060200
0.060300
0.060400
0.060500
0.060600
0.060700
0.060800
0.060900
0.061000
0.061100
0.061200
0.061300
0.061400
0.061500
0.061600
0.061700
0.061800
0.061900
0.062000
0.062100
0.062200
0.062300
0.062400
0.062500
0.062600
0.062700
0.062800
0.062900
0.063000
0.063100
0.063200
0.063300
0.063400
0.063500
0.063600
0.063700
0.063800
0.063900
0.064000
0.064100
0.064200
0.064300
0.064400
0.064500
0.064600
0.064700
0.064800
0.064900
0.065000
0.065100
0.065200
0.065300
0.065400
0.065500
0.065600
0.065700
0.065800
0.065900
0.066000
0.066100
0.066200
0.066300
0.066400
0.066500
0.066600
0.066700
0.066800
0.066900
0.067000
0.067100
0.067200
0.067300
0.067400
0.067500
0.067600
0.067700
0.067800
0.067900
0.068000
0.068100
0.068200
0.068300
0.068400
0.068500
0.068600
0.068700
0.068800
0.068900
0.069000
0.069100
0.069200
0.069300
0.069400
0.069500
0.069600
0.069700
0.069800
0.069900
0.070000
0.070100
0.070200
0.070300
0.070400
0.070500
0.070600
0.070700
0.070800
0.070900
0.071000
0.071100
0.071200
0.071300
0.071400
0.071500
0.071600
0.071700
0.071800
0.071900
0.072000
0.072100
0.072200
0.072300
0.072400
0.072500
0.072600
0.072700
0.072800
0.072900
0.073000
0.073100
0.073200
0.073300
0.073400
0.073500
0.073600
0.073700
0.073800
0.073900
0.074000
0.074100
0.074200
0.074300
0.074400
0.074500
0.074600
0.074700
0.074800
0.074900
0.075000
0.075100
0.075200
0.075300
0.075400
0.075500
0.075600
0.075700
0.075800
0.075900
0.076000
0.076100
0.076200
0.076300
0.076400
0.076500
0.076600
0.076700
0.076800
0.076900
0.077000
0.077100
0.077200
0.077300
0.077400
0.077500
0.077600
0.077700
0.077800
0.077900
0.078000
0.078100
0.078200
0.078300
0.078400
0.078500
0.078600
0.078700
0.078800
0.078900
0.079000
0.079100
0.079200
0.079300
0.079400
0.079500
0.079600
0.079700
0.079800
0.079900
0.080000
0.080100
0.080200
0.080300
0.080400
0.080500
0.080600
0.080700
0.080800
0.080900
0.081000
0.081100
0.081200
0.081300
0.081400
0.081500
0.081600
0.081700
0.081800
0.081900
0.082000
0.082100
0.082200
0.082300
0.082400
0.082500
0.082600
0.082700
0.082800
0.082900
0.083000
0.083100
0.083200
0.083300
0.083400
0.083500
0.083600
0.083700
0.083800
0.083900
0.084000
0.084100
0.084200
0.084300
0.084400
0.084500
0.084600
0.084700
0.084800
0.084900
0.085000
0.085100
0.085200
0.085300
0.085400
0.085500
0.085600
0.085700
0.085800
0.085900
0.086000
0.086100
0.086200
0.086300
0.086400
0.086500
0.086600
0.086700
0.086800
0.086900
0.087000
0.087100
0.087200
0.087300
0.087400
0.087500
0.087600
0.087700
0.087800
0.087900
0.088000
0.088100
0.088200
0.088300
0.088400
0.088500
0.088600
0.088700
0.088800
0.088900
0.089000
0.089100
0.089200
0.089300
0.089400
0.089500
0.089600
0.089700
0.089800
0.089900
0.090000
0.090100
0.090200
0.090300
0.090400
0.090500
0.090600
0.090700
0.090800
0.090900
0.091000
0.091100
0.091200
0.091300
0.091400
0.091500
0.091600
0.091700
0.091800
0.091900
0.092000
0.092100
0.092200
0.092300
0.092400
0.092500
0.092600
0.092700
0.092800
0.092900
0.093000
0.093100
0.093200
0.093300
0.093400
0.093500
0.093600
0.093700
0.093800
0.093900
0.094000
0.094100
0.094200
0.094300
0.094400
0.094500
0.094600
0.094700
0.094800
0.094900
0.095000
0.095100
0.095200
0.095300
0.095400
0.095500
0.095600
0.095700
0.095800
0.095900
0.096000
0.096100
0.096200
0.096300
0.096400
0.096500
0.096600
0.096700
0.096800
0.096900
0.097000
0.097100
0.097200
0.097300
0.097400
0.097500
0.097600
0.097700
0.097800
0.097900
0.098000
0.098100
0.098200
0.098300
0.098400
0.098500
0.098600
0.098700
0.098800
0.098900
0.099000
0.099100
0.099200
0.099300
0.099400
0.099500
0.099600
0.099700
0.099800
0.099900
0.100000
0.100100
0.100200
0.100300
0.100400
0.100500
0.100600
0.100700
0.100800
0.100900
0.101000
0.101100
0.101200
0.101300
0.101400
0.101500
0.101600
0.101700
0.101800
0.101900
0.102000
0.102100
0.102200
0.102300
0.102400
0.102500
0.102600
0.102700
0.102800
0.102900
0.103000
0.103100
0.103200
0.103300
0.103400
0.103500
0.103600
0.103700
0.103800
0.103900
0.104000
0.104100
0.104200
0.104300
0.104400
0.104500
0.104600
0.104700
0.104800
0.104900
0.105000
0.105100
0.105200
0.105300
0.105400
0.105500
0.105600
0.105700
0.105800
0.105900
0.106000
0.106100
0.106200
0.106300
0.106400
0.106500
0.106600
0.106700
0.106800
0.106900
0.107000
0.107100
0.107200
0.107300
0.107400
0.107500
0.107600
0.107700
0.107800
0.107900
0.108000
0.108100
0.108200
0.108300
0.108400
0.108500
0.108600
0.108700
0.108800
0.108900
0.109000
0.109100
0.109200
0.109300
0.109400
0.109500
0.109600
0.109700
0.109800
0.109900
0.110000
0.110100
0.110200
0.110300
0.110400
0.110500
0.110600
0.110700
0.110800
0.110900
0.111000
0.111100
0.111200
0.111300
0.111400
0.111500
0.111600
0.111700
0.111800
0.111900
0.112000
0.112100
0.112200
0.112300
0.112400
0.112500
0.112600
0.112700
0.112800
0.112900
0.113000
0.113100
0.113200
0.113300
0.113400
0.113500
0.113600
0.113700
0.113800
0.113900
0.114000
0.114100
0.114200
0.114300
0.114400
0.114500
0.114600
0.114700
0.114800
0.114900
0.115000
0.115100
0.115200
0.115300
0.115400
0.115500
0.115600
0.115700
0.115800
0.115900
0.116000
0.116100
0.116200
0.116300
0.116400
0.116500
0.116600
0.116700
0.116800
0.116900
0.117000
0.117100
0.117200
0.117300
0.117400
0.117500
0.117600
0.117700
0.117800
0.117900
0.118000
0.118100
0.118200
0.118300
0.118400
0.118500
0.118600
0.118700
0.118800
0.118900
0.119000
0.119100
0.119200
0.119300
0.119400
0.119500
0.119600
0.119700
0.119800
0.119900
0.120000
0.120100
0.120200
0.120300
0.120400
0.120500
0.120600
0.120700
0.120800
0.120900
0.121000
0.121100
0.121200
0.121300
0.121400
0.121500
0.121600
0.121700
0.121800
0.121900
0.122000
0.122100
0.122200
0.122300
0.122400
0.122500
0.122600
0.122700
0.122800
0.122900
0.123000
0.123100
0.123200
0.123300
0.123400
0.123500
0.123600
0.123700
0.123800
0.123900
0.124000
0.124100
0.124200
0.124300
0.124400
0.124500
0.124600
0.124700
0.124800
0.124900
0.125000
0.125100
0.125200
0.125300
0.125400
0.125500
0.125600
0.125700
0.125800
0.125900
0.126000
0.126100
0.126200
0.126300
0.126400
0.126500
0.126600
0.126700
0.126800
0.126900
0.127000
0.127100
0.127200
0.127300
0.127400
0.127500
0.127600
0.127700
0.127800
0.127900
0.128000
0.128100
0.128200
0.128300
0.128400
0.128500
0.128600
0.128700
0.128800
0.128900
0.129000
0.129100
0.129200
0.129300
0.129400
0.129500
0.129600
0.129700
0.129800
0.129900
0.130000
0.130100
0.130200
0.130300
0.130400
0.130500
0.130600
0.130700
0.130800
0.130900
0.131000
0.131100
0.131200
0.131300
0.131400
0.131500
0.131600
0.131700
0.131800
0.131900
0.132000
0.132100
0.132200
0.132300
0.132400
0.132500
0.132600
0.132700
0.132800
0.132900
0.133000
0.133100
0.133200
0.133300
0.133400
0.133500
0.133600
0.133700
0.133800
0.133900
0.134000
0.134100
0.134200
0.134300
0.134400
0.134500
0.134600
0.134700
0.134800
0.134900
0.135000
0.135100
0.135200
0.135300
0.135400
0.135500
0.135600
0.135700
0.135800
0.135900
0.136000
0.136100
0.136200
0.136300
0.136400
0.136500
0.136600
0.136700
0.136800
0.136900
0.137000
0.137100
0.137200
0.137300
0.137400
0.137500
0.137600
0.137700
0.137800
0.137900
0.138000
0.138100
0.138200
0.138300
0.138400
0.138500
0.138600
0.138700
0.138800
0.138900
0.139000
0.139100
0.139200
0.139300
0.139400
0.139500
0.139600
0.139700
0.139800
0.139900
0.140000
0.140100
0.140200
0.140300
0.140400
0.140500
0.140600
0.140700
0.140800
0.140900
0.141000
0.141100
0.141200
0.141300
0.141400
0.141500
0.141600
0.141700
0.141800
0.141900
0.142000
0.142100
0.142200
0.142300
0.142400
0.142500
0.142600
0.142700
0.142800
0.142900
0.143000
0.143100
0.143200
0.143300
0.143400
0.143500
0.143600
0.143700
0.143800
0.143900
0.144000
0.144100
0.144200
0.144300
0.144400
0.144500
0.144600
0.144700
0.144800
0.144900
0.145000
0.145100
0.145200
0.145300
0.145400
0.145500
0.145600
0.145700
0.145800
0.145900
0.146000
0.146100
0.146200
0.146300
0.146400
0.146500
0.146600
0.146700
0.146800
0.146900
0.147000
0.147100
0.147200
0.147300
0.147400
0.147500
0.147600
0.147700
0.147800
0.147900
0.148000
0.148100
0.148200
0.148300
0.148400
0.148500
0.148600
0.148700
0.148800
0.148900
0.149000
0.149100
0.149200
0.149300
0.149400
0.149500
0.149600
0.149700
0.149800
0.149900
0.150000
0.150100
0.150200
0.150300
0.150400
0.150500
0.150600
0.150700
0.150800
0.150900
0.151000
0.151100
0.151200
0.151300
0.151400
0.151500
0.151600
0.151700
0.151800
0.151900
0.152000
0.152100
0.152200
0.152300
0.152400
0.152500
0.152600
0.152700
0.152800
0.152900
0.153000
0.153100
0.153200
0.153300
0.153400
0.153500
0.153600
0.153700
0.153800
0.153900
0.154000
0.154100
0.154200
0.154300
0.154400
0.154500
0.154600
0.154700
0.154800
0.154900
0.155000
0.155100
0.155200
0.155300
0.155400
0.155500
0.155600
0.155700
0.155800
0.155900
0.156000
0.156100
0.156200
0.156300
0.156400
0.156500
0.156600
0.156700
0.156800
0.156900
0.157000
0.157100
0.157200
0.157300
0.157400
0.157500
0.157600
0.157700
0.157800
0.157900
0.158000
0.158100
0.158200
0.158300
0.158400
0.158500
0.158600
0.158700
0.158800
0.158900
0.159000
0.159100
0.159200
0.159300
0.159400
0.159500
0.159600
0.159700
0.159800
0.159900
0.160000
0.160100
0.160200
0.160300
0.160400
0.160500
0.160600
0.160700
0.160800
0.160900
0.161000
0.161100
0.161200
0.161300
0.161400
0.161500
0.161600
0.161700
0.161800
0.161900
0.162000
0.162100
0.162200
0.162300
0.162400
0.162500
0.162600
0.162700
0.162800
0.162900
0.163000
0.163100
0.163200
0.163300
0.163400
0.163500
0.163600
0.163700
0.163800
0.163900
0.164000
0.164100
0.164200
0.164300
0.164400
0.164500
0.164600
0.164700
0.164800
0.164900
0.165000
0.165100
0.165200
0.165300
0.165400
0.165500
0.165600
0.165700
0.165800
0.165900
0.166000
0.166100
0.166200
0.166300
0.166400
0.166500
0.166600
0.166700
0.166800
0.166900
0.167000
0.167100
0.167200
0.167300
0.167400
0.167500
0.167600
0.167700
0.167800
0.167900
0.168000
0.168100
0.168200
0.168300
0.168400
0.168500
0.168600
0.168700
0.168800
0.168900
0.169000
0.169100
0.169200
0.169300
0.169400
0.169500
0.169600
0.169700
0.169800
0.169900
0.170000
0.170100
0.170200
0.170300
0.170400
0.170500
0.170600
0.170700
0.170800
0.170900
0.171000
0.171100
0.171200
0.171300
0.171400
0.171500
0.171600
0.171700
0.171800
0.171900
0.172000
0.172100
0.172200
0.172300
0.172400
0.172500
0.172600
0.172700
0.172800
0.172900
0.173000
0.173100
0.173200
0.173300
0.173400
0.173500
0.173600
0.173700
0.173800
0.173900
0.174000
0.174100
0.174200
0.174300
0.174400
0.174500
0.174600
0.174700
0.174800
0.174900
0.175000
0.175100
0.175200
0.175300
0.175400
0.175500
0.175600
0.175700
0.175800
0.175900
0.176000
0.176100
0.176200
0.176300
0.176400
0.176500
0.176600
0.176700
0.176800
0.176900
0.177000
0.177100
0.177200
0.177300
0.177400
0.177500
0.177600
0.177700
0.177800
0.177900
0.178000
0.178100
0.178200
0.178300
0.178400
0.178500
0.178600
0.178700
0.178800
0.178900
0.179000
0.179100
0.179200
0.179300
0.179400
0.179500
0.179600
0.179700
0.179800
0.179900
0.180000
0.180100
0.180200
0.180300
0.180400
0.180500
0.180600
0.180700
0.180800
0.180900
0.181000
0.181100
0.181200
0.181300
0.181400
0.181500
0.181600
0.181700
0.181800
0.181900
0.182000
0.182100
0.182200
0.182300
0.182400
0.182500
0.182600
0.182700
0.182800
0.182900
0.183000
0.183100
0.183200
0.183300
0.183400
0.183500
0.183600
0.183700
0.183800
0.183900
0.184000
0.184100
0.184200
0.184300
0.184400
0.184500
0.184600
0.184700
0.184800
0.184900
0.185000
0.185100
0.185200
0.185300
0.185400
0.185500
0.185600
0.185700
0.185800
0.185900
0.186000
0.186100
0.186200
0.186300
0.186400
0.186500
0.186600
0.186700
0.186800
0.186900
0.187000
0.187100
0.187200
0.187300
0.187400
0.187500
0.187600
0.187700
0.187800
0.187900
0.188000
0.188100
0.188200
0.188300
0.188400
0.188500
0.188600
0.188700
0.188800
0.188900
0.189000
0.189100
0.189200
0.189300
0.189400
0.189500
0.189600
0.189700
0.189800
0.189900
0.190000
0.190100
0.190200
0.190300
0.190400
0.190500
0.190600
0.190700
0.190800
0.190900
0.191000
0.191100
0.191200
0.191300
0.191400
0.191500
0.191600
0.191700
0.191800
0.191900
0.192000
0.192100
0.192200
0.192300
0.192400
0.192500
0.192600
0.192700
0.192800
0.192900
0.193000
0.193100
0.193200
0.193300
0.193400
0.193500
0.193600
0.193700
0.193800
0.193900
0.194000
0.194100
0.194200
0.194300
0.194400
0.194500
0.194600
0.194700
0.194800
0.194900
0.195000
0.195100
0.195200
0.195300
0.195400
0.195500
0.195600
0.195700
0.195800
0.195900
0.196000
0.196100
0.196200
0.196300
0.196400
0.196500
0.196600
0.196700
0.196800
0.196900
0.197000
0.197100
0.197200
0.197300
0.197400
0.197500
0.197600
0.197700
0.197800
0.197900
0.198000
0.198100
0.198200
0.198300
0.198400
0.198500
0.198600
0.198700
0.198800
0.198900
0.199000
0.199100
0.199200
0.199300
0.199400
0.199500
0.199600
0.199700
0.199800
0.199900
0.200000
0.200100
0.200200
0.200300
0.200400
0.200500
0.200600
0.200700
0.200800
0.200900
0.201000
0.201100
0.201200
0.201300
0.201400
0.201500
0.201600
0.201700
0.201800
0.201900
0.202000
0.202100
0.202200
0.202300
0.202400
0.202500
0.202600
0.202700
0.202800
0.202900
0.203000
0.203100
0.203200
0.203300
0.203400
0.203500
0.203600
0.203700
0.203800
0.203900
0.204000
0.204100
0.204200
0.204300
0.204400
0.204500
0.204600
0.204700
0.204800
0.204900
0.205000
0.205100
0.205200
0.205300
0.205400
0.205500
0.205600
0.205700
0.205800
0.205900
0.206000
0.206100
0.206200
0.206300
0.206400
0.206500
0.206600
0.206700
0.206800
0.206900
0.207000
0.207100
0.207200
0.207300
0.207400
0.207500
0.207600
0.207700
0.207800
0.207900
0.208000
0.208100
0.208200
0.208300
0.208400
0.208500
0.208600
0.208700
0.208800
0.208900
0.209000
0.209100
0.209200
0.209300
0.209400
0.209500
0.209600
0.209700
0.209800
0.209900
0.210000
0.210100
0.210200
0.210300
0.210400
0.210500
0.210600
0.210700
0.210800
0.210900
0.211000
0.211100
0.211200
0.211300
0.211400
0.211500
0.211600
0.211700
0.211800
0.211900
0.212000
0.212100
0.212200
0.212300
0.212400
0.212500
0.212600
0.212700
0.212800
0.212900
0.213000
0.213100
0.213200
0.213300
0.213400
0.213500
0.213600
0.213700
0.213800
0.213900
0.214000
0.214100
0.214200
0.214300
0.214400
0.214500
0.214600
0.214700
0.214800
0.214900
0.215000
0.215100
0.215200
0.215300
0.215400
0.215500
0.215600
0.215700
0.215800
0.215900
0.216000
0.216100
0.216200
0.216300
0.216400
0.216500
0.216600
0.216700
0.216800
0.216900
0.217000
0.217100
0.217200
0.217300
0.217400
0.217500
0.217600
0.217700
0.217800
0.217900
0.218000
0.218100
0.218200
0.218300
0.218400
0.218500
0.218600
0.218700
0.218800
0.218900
0.219000
0.219100
0.219200
0.219300
0.219400
0.219500
0.219600
0.219700
0.219800
0.219900
0.220000
0.220100
0.220200
0.220300
0.220400
0.220500
0.220600
0.220700
0.220800
0.220900
0.221000
0.221100
0.221200
0.221300
0.221400
0.221500