# vtk DataFile Version 2.0
Generated Volume Mesh
ASCII
DATASET UNSTRUCTURED_GRID
POINTS 2428 float
-1.049054 1.564796 0.439651
-0.047943 1.581541 0.043011
-0.049312 1.461559 0.040386
-1.054804 1.447318 0.414681
-1.126181 1.538755 0.554680
-1.132532 1.423885 0.520134
-1.126063 1.538322 0.556049
-1.030831 1.386887 0.606358
-1.024612 1.497612 0.653027
0.001739 1.382810 0.780316
-0.003007 1.281239 0.716227
-0.000979 1.343428 0.839456
-0.006591 1.245980 0.769319
-1.250317 1.372122 0.926849
-1.258650 1.274704 0.856638
-1.307516 1.390353 0.907545
-1.315831 1.291214 0.839757
-1.316314 1.291544 0.839330
-1.308000 1.390721 0.907064
-1.303666 1.306144 1.016155
-1.312352 1.215816 0.937033
-1.311904 1.216167 0.936581
-1.303221 1.306539 1.015655
-1.247751 1.323086 0.990128
-1.256348 1.230787 0.913299
0.002743 1.294413 0.902773
-0.003264 1.202077 0.826031
0.012189 1.247465 0.955391
0.005900 1.159975 0.873090
-0.997377 1.093818 1.182621
-1.007276 1.021839 1.086573
-1.001187 0.901069 1.299944
-1.011990 0.849111 1.191736
0.020908 0.582690 1.320671
0.012510 0.555912 1.203657
0.019557 0.514619 1.334047
0.011607 0.494337 1.215703
-1.009491 0.234131 1.423198
-1.018549 0.238245 1.303152
-1.016344 0.012290 1.394347
-1.024915 0.038657 1.277171
-0.001483 -0.289745 1.226148
-0.007799 -0.241563 1.115820
-0.003162 -0.352857 1.196530
-0.009683 -0.298889 1.088811
-1.030495 -0.639683 1.080030
-1.037648 -0.565347 0.984873
-1.115812 -0.728209 1.010266
-1.122763 -0.646281 0.921663
-1.115800 -0.729258 1.009271
-1.027712 -0.711772 0.845540
-1.021651 -0.802907 0.924832
0.002619 -0.883348 0.743704
-0.002060 -0.780347 0.680920
0.001234 -0.919426 0.681320
-0.004925 -0.812655 0.625013
-1.248304 -1.060573 0.616100
-1.260271 -0.953955 0.559680
-1.307473 -1.054209 0.638085
-1.319096 -0.949017 0.579075
-1.319616 -0.948803 0.579538
-1.308000 -1.053963 0.638605
-1.294833 -1.114509 0.513911
-1.307892 -1.003025 0.467842
-1.307478 -1.002751 0.468383
-1.294425 -1.114210 0.514513
-1.240700 -1.095689 0.543764
-1.253462 -0.985402 0.494900
0.006547 -0.954222 0.608965
-0.000188 -0.844254 0.560207
0.016998 -0.980595 0.542530
0.010724 -0.867349 0.501079
-0.984234 -1.120441 0.235209
-0.994916 -1.001819 0.215372
-0.966323 -1.136074 0.009039
-0.980579 -1.015854 0.012741
0.086570 -0.979679 -0.155426
0.069759 -0.863314 -0.125047
0.093420 -0.960128 -0.222139
0.076044 -0.845659 -0.185215
-0.909148 -0.944752 -0.652597
-0.931751 -0.841257 -0.591337
-0.900999 -0.812894 -0.833832
-0.924472 -0.722704 -0.754203
0.117406 -0.446228 -0.891808
0.094780 -0.376824 -0.793588
0.113250 -0.388690 -0.930432
0.090163 -0.325358 -0.828163
-0.940682 -0.311410 -1.200110
-0.964464 -0.278165 -1.084775
-0.006790 0.408216 -1.115061
0.008304 0.337151 -1.117136
-0.005508 0.334989 -0.996821
-0.020604 0.399302 -0.995232
-1.255260 0.263478 -1.313151
-1.273698 0.254568 -1.193226
-1.307622 0.228456 -1.324564
-1.326453 0.222495 -1.204474
-1.326839 0.221883 -1.204581
-1.308000 0.227779 -1.324674
-1.328118 0.365157 -1.309647
-1.344881 0.344935 -1.191109
-1.344332 0.344439 -1.191123
-1.327559 0.364598 -1.309672
-1.266939 0.343156 -1.304425
-1.284164 0.325922 -1.185414
-0.017346 0.487852 -1.106408
-0.030107 0.470763 -0.987506
-0.020032 0.559316 -1.093416
-0.032239 0.535251 -0.975453
-1.053550 0.736485 -1.154151
-1.065491 0.695864 -1.040821
-1.078368 0.940801 -1.058452
-1.087673 0.879261 -0.955070
-0.072697 1.205784 -0.784168
-0.075422 1.122188 -0.697592
-0.075110 1.254761 -0.733874
-0.077595 1.166342 -0.652012
-1.098261 1.460147 -0.484351
-1.101618 1.355024 -0.426051
-1.091271 1.549694 -0.278776
-1.094416 1.435273 -0.241877
-0.053608 1.581158 -0.026655
-0.054055 1.461222 -0.022122
-1.072952 1.522770 -0.352138
-0.038724 1.575576 -0.105219
-0.038864 1.456188 -0.092797
-1.076207 1.411042 -0.307570
-1.074823 1.494697 -0.415883
-1.078604 1.385892 -0.364591
-0.056284 1.305486 -0.674551
-0.058608 1.211960 -0.598789
-0.048452 1.148400 -0.835247
-0.051793 1.070862 -0.743204
-1.051376 0.873422 -1.093821
-1.061534 0.818633 -0.986516
-1.043605 0.809985 -1.123375
-1.055141 0.761639 -1.013170
-0.013571 0.636891 -1.073385
-0.024983 0.605342 -0.957368
0.074763 0.457861 -1.100281
0.061707 0.444865 -0.980674
0.035563 0.260575 -1.114174
0.020594 0.266174 -0.994163
-0.945019 -0.163615 -1.228764
-0.965322 -0.145966 -1.110063
-0.988675 -0.182823 -1.108819
-0.966896 -0.204612 -1.227019
-0.956490 -0.206685 -1.098979
-0.933900 -0.232231 -1.216261
0.127377 -0.318351 -0.966430
0.104669 -0.262085 -0.860176
0.142169 -0.505062 -0.842524
0.118991 -0.429307 -0.749146
-0.881892 -0.859796 -0.771221
-0.905326 -0.764502 -0.697708
-0.884411 -0.900809 -0.714934
-0.907549 -0.801542 -0.646943
0.121422 -0.931901 -0.292350
0.103111 -0.820253 -0.247629
0.098919 -0.994772 -0.077159
0.082884 -0.876661 -0.054566
-0.954161 -1.133751 0.088731
-0.967636 -1.013587 0.084378
-0.959913 -1.129360 0.158615
-0.971852 -1.009661 0.146965
0.038477 -1.004108 0.468234
0.031257 -0.888304 0.434855
0.090731 -0.931460 0.649347
0.084631 -0.822895 0.596782
0.013689 -0.839156 0.810093
0.009328 -0.740602 0.740491
-1.006804 -0.748395 0.982316
-1.013041 -0.662808 0.897026
-1.042459 -0.641750 0.919561
-1.035696 -0.724927 1.007302
-1.016465 -0.617838 0.939535
-1.009212 -0.698428 1.029446
0.015604 -0.420848 1.158462
0.009286 -0.359877 1.054499
0.021500 -0.217619 1.253619
0.014843 -0.177004 1.140243
-0.992769 0.087884 1.407361
-1.001648 0.106547 1.288636
-0.990753 0.156568 1.416432
-0.999758 0.168791 1.296939
0.038846 0.437575 1.343309
0.030984 0.425202 1.223929
0.042729 0.656906 1.299630
0.034020 0.622280 1.184714
-0.981316 0.969033 1.262557
-0.992134 0.909982 1.158051
-0.980279 1.028905 1.226400
-0.990643 0.963770 1.125632
0.031302 1.191667 1.009747
0.024406 1.109961 0.921745
0.087850 1.319000 0.865815
0.082204 1.224001 0.792320
0.013472 1.422347 0.711542
0.008927 1.316604 0.654625
-1.014760 1.525406 0.578456
-1.020598 1.411810 0.539301
-1.052155 1.422027 0.512103
-1.045955 1.536828 0.548126
-1.028297 1.430203 0.480109
-1.021867 1.545713 0.512924
-0.020736 1.577143 0.118511
-0.022806 1.457593 0.107955
0.055256 1.461147 0.000008
0.055898 1.581318 0.000009
-0.024964 1.461691 0.006901
-0.024197 1.581649 0.006116
-1.068685 -0.201312 -1.120387
-1.047222 -0.223190 -1.238225
-1.047503 -0.221766 -1.238481
-0.976768 -0.088540 -1.239542
-0.995309 -0.079301 -1.119951
-1.068941 -0.200053 -1.120616
-0.550253 1.577921 0.241335
-0.554547 1.458661 0.227725
-1.107134 1.557120 0.484700
-1.114950 1.440172 0.458526
-1.102011 1.402213 0.578087
-1.093496 1.513557 0.622416
-0.513092 1.442918 0.715157
-0.517731 1.336381 0.659667
0.032293 1.361640 0.810630
0.027151 1.262050 0.743531
-0.833509 1.358847 0.897521
-0.417224 1.348813 0.868122
-0.424163 1.251391 0.797922
-0.841515 1.261475 0.827321
-0.413866 1.299852 0.931436
-0.830719 1.309876 0.960806
-0.839014 1.217538 0.883988
-0.421149 1.207436 0.854621
0.039114 1.273175 0.924975
0.033052 1.183248 0.845404
-0.493919 1.169832 1.071309
-0.501734 1.089895 0.981739
-1.064405 0.941103 1.286224
-1.088622 1.005259 1.252507
-1.062593 1.064446 1.210945
-1.074767 0.994140 1.113711
-1.099296 0.944495 1.148834
-1.077512 0.887701 1.179042
-0.491158 0.744935 1.315032
-0.500958 0.705486 1.201700
0.046911 0.547996 1.326137
0.038675 0.524492 1.208340
-0.496830 0.375320 1.384075
-0.504943 0.367274 1.264307
-1.088763 0.074935 1.412554
-1.086176 0.172353 1.425220
-1.090454 0.191065 1.306016
-1.101685 0.103706 1.296043
-0.511513 -0.142478 1.314657
-0.518460 -0.104943 1.200451
0.024338 -0.321423 1.210222
0.017850 -0.270302 1.101056
-0.519493 -0.495389 1.147030
-0.526798 -0.431113 1.044970
-1.091613 -0.674158 1.056488
-1.100713 -0.598780 0.962420
-1.096591 -0.690216 0.875193
-1.088231 -0.779643 0.956067
-0.512857 -0.848187 0.830027
-0.517100 -0.750845 0.758647
0.033831 -0.901171 0.711383
0.028542 -0.796330 0.651748
-0.831316 -1.007217 0.638388
-0.414910 -0.957890 0.660852
-0.424772 -0.850951 0.604511
-0.842915 -0.900620 0.582023
-0.407855 -0.992774 0.588483
-0.823860 -1.042345 0.566078
-0.836225 -0.932028 0.517223
-0.418423 -0.882544 0.539568
0.043224 -0.964638 0.580480
0.036883 -0.852816 0.535237
-0.486562 -1.051200 0.395116
-0.494126 -0.934740 0.364549
-1.033812 -1.143486 0.044430
-1.065150 -1.143351 0.114793
-1.045975 -1.133158 0.189475
-1.059182 -1.014322 0.171508
-1.078034 -1.023159 0.108538
-1.050047 -1.023512 0.046153
-0.441319 -1.064986 -0.077167
-0.457195 -0.946006 -0.059926
0.116735 -0.967727 -0.185093
0.099544 -0.852231 -0.151440
-0.408695 -0.956240 -0.439941
-0.428412 -0.846594 -0.390562
-0.976900 -0.862759 -0.797388
-0.980862 -0.920605 -0.717843
-0.999995 -0.824589 -0.643613
-1.005066 -0.774323 -0.716725
-0.391595 -0.638283 -0.866157
-0.414009 -0.557951 -0.776637
0.142041 -0.413605 -0.908037
0.119176 -0.347190 -0.807746
-0.412025 -0.345915 -1.072369
-0.436493 -0.297088 -0.962710
0.032136 0.379652 -1.112352
0.018392 0.374298 -0.992232
-0.838370 0.312870 -1.242042
-0.422344 0.361411 -1.174824
-0.438725 0.352474 -1.054941
-0.856403 0.303941 -1.122214
-0.433476 0.441105 -1.166231
-0.850052 0.392529 -1.233423
-0.866860 0.375306 -1.114373
-0.448699 0.423907 -1.047038
0.013367 0.523898 -1.096775
0.001077 0.503219 -0.978303
-0.540020 0.641725 -1.128637
-0.552410 0.609523 -1.012744
-1.137598 0.902357 -1.087007
-1.155002 0.836928 -1.123036
-1.122295 0.771510 -1.148302
-1.136050 0.729025 -1.035709
-1.165831 0.784057 -1.014716
-1.149701 0.842316 -0.983040
-0.579514 1.079101 -0.920198
-0.584539 1.005967 -0.824647
-0.047234 1.230775 -0.758238
-0.049892 1.144655 -0.674010
-0.591040 1.359600 -0.620494
-0.593847 1.262292 -0.549783
-1.167831 1.531584 -0.336385
-1.171241 1.492359 -0.426663
-1.170599 1.380546 -0.381645
-1.175915 1.416685 -0.300812
-0.576234 1.571307 -0.148087
-0.577142 1.453062 -0.127053
-0.555386 1.555000 -0.223572
-0.556652 1.438494 -0.194777
-1.100494 1.510196 -0.383622
-1.104004 1.399867 -0.335671
-0.564602 1.401750 -0.557287
-0.568310 1.300054 -0.493415
0.023483 1.195893 -0.789948
0.020235 1.264616 -0.719855
0.013361 1.180909 -0.633420
0.024832 1.119678 -0.696556
[...]
POINT_DATA 2428
SCALARS var1 float
LOOKUP_TABLE default
0.000000
0.000100
0.000200
0.000300
0.000400
0.000500
0.000600
0.000700
0.000800
0.000900
0.001000
0.001100
0.001200
0.001300
0.001400
0.001500
0.001600
0.001700
0.001800
0.001900
0.002000
0.002100
0.002200
0.002300
0.002400
0.002500
0.002600
0.002700
0.002800
0.002900
0.003000
0.003100
0.003200
0.003300
0.003400
0.003500
0.003600
0.003700
0.003800
0.003900
0.004000
0.004100
0.004200
0.004300
0.004400
0.004500
0.004600
0.004700
0.004800
0.004900
0.005000
0.005100
0.005200
0.005300
0.005400
0.005500
0.005600
0.005700
0.005800
0.005900
0.006000
0.006100
0.006200
0.006300
0.006400
0.006500
0.006600
0.006700
0.006800
0.006900
0.007000
0.007100
0.007200
0.007300
0.007400
0.007500
0.007600
0.007700
0.007800
0.007900
0.008000
0.008100
0.008200
0.008300
0.008400
0.008500
0.008600
0.008700
0.008800
0.008900
0.009000
0.009100
0.009200
0.009300
0.009400
0.009500
0.009600
0.009700
0.009800
0.009900
0.010000
0.010100
0.010200
0.010300
0.010400
0.010500
0.010600
0.010700
0.010800
0.010900
0.011000
0.011100
0.011200
0.011300
0.011400
0.011500
0.011600
0.011700
0.011800
0.011900
0.012000
0.012100
0.012200
0.012300
0.012400
0.012500
0.012600
0.012700
0.012800
0.012900
0.013000
0.013100
0.013200
0.013300
0.013400
0.013500
0.013600
0.013700
0.013800
0.013900
0.014000
0.014100
0.014200
0.014300
0.014400
0.014500
0.014600
0.014700
0.014800
0.014900
0.015000
0.015100
0.015200
0.015300
0.015400
0.015500
0.015600
0.015700
0.015800
0.015900
0.016000
0.016100
0.016200
0.016300
0.016400
0.016500
0.016600
0.016700
0.016800
0.016900
0.017000
0.017100
0.017200
0.017300
0.017400
0.017500
0.017600
0.017700
0.017800
0.017900
0.018000
0.018100
0.018200
0.018300
0.018400
0.018500
0.018600
0.018700
0.018800
0.018900
0.019000
0.019100
0.019200
0.019300
0.019400
0.019500
0.019600
0.019700
0.019800
0.019900
0.020000
0.020100
0.020200
0.020300
0.020400
0.020500
0.020600
0.020700
0.020800
0.020900
0.021000
0.021100
0.021200
0.021300
0.021400
0.021500
0.021600
0.021700
0.021800
0.021900
0.022000
0.022100
0.022200
0.022300
0.022400
0.022500
0.022600
0.022700
0.022800
0.022900
0.023000
0.023100
0.023200
0.023300
0.023400
0.023500
0.023600
0.023700
0.023800
0.023900
0.024000
0.024100
0.024200
0.024300
0.024400
0.024500
0.024600
0.024700
0.024800
0.024900
0.025000
0.025100
0.025200
0.025300
0.025400
0.025500
0.025600
0.025700
0.025800
0.025900
0.026000
0.026100
0.026200
0.026300
0.026400
0.026500
0.026600
0.026700
0.026800
0.026900
0.027000
0.027100
0.027200
0.027300
0.027400
0.027500
0.027600
0.027700
0.027800
0.027900
0.028000
0.028100
0.028200
0.028300
0.028400
0.028500
0.028600
0.028700
0.028800
0.028900
0.029000
0.029100
0.029200
0.029300
0.029400
0.029500
0.029600
0.029700
0.029800
0.029900
0.030000
0.030100
0.030200
0.030300
0.030400
0.030500
0.030600
0.030700
0.030800
0.030900
0.031000
0.031100
0.031200
0.031300
0.031400
0.031500
0.031600
0.031700
0.031800
0.031900
0.032000
0.032100
0.032200
0.032300
0.032400
0.032500
0.032600
0.032700
0.032800
0.032900
0.033000
0.033100
0.033200
0.033300
0.033400
0.033500
0.033600
0.033700
0.033800
0.033900
0.034000
0.034100
0.034200
0.034300
0.034400
0.034500
0.034600
0.034700
0.034800
0.034900
0.035000
0.035100
0.035200
0.035300
0.035400
0.035500
0.035600
0.035700
0.035800
0.035900
0.036000
0.036100
0.036200
0.036300
0.036400
0.036500
0.036600
0.036700
0.036800
0.036900
0.037000
0.037100
0.037200
0.037300
0.037400
0.037500
0.037600
0.037700
0.037800
0.037900
0.038000
0.038100
0.038200
0.038300
0.038400
0.038500
0.038600
0.038700
0.038800
0.038900
0.039000
0.039100
0.039200
0.039300
0.039400
0.039500
0.039600
0.039700
0.039800
0.039900
0.040000
0.040100
0.040200
0.040300
0.040400
0.040500
0.040600
0.040700
0.040800
0.040900
0.041000
0.041100
0.041200
0.041300
0.041400
0.041500
0.041600
0.041700
0.041800
0.041900
0.042000
0.042100
0.042200
0.042300
0.042400
0.042500
0.042600
0.042700
0.042800
0.042900
0.043000
0.043100
0.043200
0.043300
0.043400
0.043500
0.043600
0.043700
0.043800
0.043900
0.044000
0.044100
0.044200
0.044300
0.044400
0.044500
0.044600
0.044700
0.044800
0.044900
0.045000
0.045100
0.045200
0.045300
0.045400
0.045500
0.045600
0.045700
0.045800
0.045900
0.046000
0.046100
0.046200
0.046300
0.046400
0.046500
0.046600
0.046700
0.046800
0.046900
0.047000
0.047100
0.047200
0.047300
0.047400
0.047500
0.047600
0.047700
0.047800
0.047900
0.048000
0.048100
0.048200
0.048300
0.048400
0.048500
0.048600
0.048700
0.048800
0.048900
0.049000
0.049100
0.049200
0.049300
0.049400
0.049500
0.049600
0.049700
0.049800
0.049900
0.050000
0.050100
0.050200
0.050300
0.050400
0.050500
0.050600
0.050700
0.050800
0.050900
0.051000
0.051100
0.051200
0.051300
0.051400
0.051500
0.051600
0.051700
0.051800
0.051900
0.052000
0.052100
0.052200
0.052300
0.052400
0.052500
0.052600
0.052700
0.052800
0.052900
0.053000
0.053100
0.053200
0.053300
0.053400
0.053500
0.053600
0.053700
0.053800
0.053900
0.054000
0.054100
0.054200
0.054300
0.054400
0.054500
0.054600
0.054700
0.054800
0.054900
0.055000
0.055100
0.055200
0.055300
0.055400
0.055500
0.055600
0.055700
0.055800
0.055900
0.056000
0.056100
0.056200
0.056300
0.056400
0.056500
0.056600
0.056700
0.056800
0.056900
0.057000
0.057100
0.057200
0.057300
0.057400
0.057500
0.057600
0.057700
0.057800
0.057900
0.058000
0.058100
0.058200
0.058300
0.058400
0.058500
0.058600
0.058700
0.058800
0.058900
0.059000
0.059100
0.059200
0.059300
0.059400
0.059500
0.059600
0.059700
0.059800
0.059900
0.060000
0.060100
0.060200
0.060300
0.060400
0.060500
0.060600
0.060700
0.060800
0.060900
0.061000
0.061100
0.061200
0.061300
0.061400
0.061500
0.061600
0.061700
0.061800
0.061900
0.062000
0.062100
0.062200
0.062300
0.062400
0.062500
0.062600
0.062700
0.062800
0.062900
0.063000
0.063100
0.063200
0.063300
0.063400
0.063500
0.063600
0.063700
0.063800
0.063900
0.064000
0.064100
0.064200
0.064300
0.064400
0.064500
0.064600
0.064700
0.064800
0.064900
0.065000
0.065100
0.065200
0.065300
0.065400
0.065500
0.065600
0.065700
0.065800
0.065900
0.066000
0.066100
0.066200
0.066300
0.066400
0.066500
0.066600
0.066700
0.066800
0.066900
0.067000
0.067100
0.067200
0.067300
0.067400
0.067500
0.067600
0.067700
0.067800
0.067900
0.068000
0.068100
0.068200
0.068300
0.068400
0.068500
0.068600
0.068700
0.068800
0.068900
0.069000
0.069100
0.069200
0.069300
0.069400
0.069500
0.069600
0.069700
0.069800
0.069900
0.070000
0.070100
0.070200
0.070300
0.070400
0.070500
0.070600
0.070700
0.070800
0.070900
0.071000
0.071100
0.071200
0.071300
0.071400
0.071500
0.071600
0.071700
0.071800
0.071900
0.072000
0.072100
0.072200
0.072300
0.072400
0.072500
0.072600
0.072700
0.072800
0.072900
0.073000
0.073100
0.073200
0.073300
0.073400
0.073500
0.073600
0.073700
0.073800
0.073900
0.074000
0.074100
0.074200
0.074300
0.074400
0.074500
0.074600
0.074700
0.074800
0.074900
0.075000
0.075100
0.075200
0.075300
0.075400
0.075500
0.075600
0.075700
0.075800
0.075900
0.076000
0.076100
0.076200
0.076300
0.076400
0.076500
0.076600
0.076700
0.076800
0.076900
0.077000
0.077100
0.077200
0.077300
0.077400
0.077500
0.077600
0.077700
0.077800
0.077900
0.078000
0.078100
0.078200
0.078300
0.078400
0.078500
0.078600
0.078700
0.078800
0.078900
0.079000
0.079100
0.079200
0.079300
0.079400
0.079500
0.079600
0.079700
0.079800
0.079900
0.080000
0.080100
0.080200
0.080300
0.080400
0.080500
0.080600
0.080700
0.080800
0.080900
0.081000
0.081100
0.081200
0.081300
0.081400
0.081500
0.081600
0.081700
0.081800
0.081900
0.082000
0.082100
0.082200
0.082300
0.082400
0.082500
0.082600
0.082700
0.082800
0.082900
0.083000
0.083100
0.083200
0.083300
0.083400
0.083500
0.083600
0.083700
0.083800
0.083900
0.084000
0.084100
0.084200
0.084300
0.084400
0.084500
0.084600
0.084700
0.084800
0.084900
0.085000
0.085100
0.085200
0.085300
0.085400
0.085500
0.085600
0.085700
0.085800
0.085900
0.086000
0.086100
0.086200
0.086300
0.086400
0.086500
0.086600
0.086700
0.086800
0.086900
0.087000
0.087100
0.087200
0.087300
0.087400
0.087500
0.087600
0.087700
0.087800
0.087900
0.088000
0.088100
0.088200
0.088300
0.088400
0.088500
0.088600
0.088700
0.088800
0.088900
0.089000
0.089100
0.089200
0.089300
0.089400
0.089500
0.089600
0.089700
0.089800
0.089900
0.090000
0.090100
0.090200
0.090300
0.090400
0.090500
0.090600
0.090700
0.090800
0.090900
0.091000
0.091100
0.091200
0.091300
0.091400
0.091500
0.091600
0.091700
0.091800
0.091900
0.092000
0.092100
0.092200
0.092300
0.092400
0.092500
0.092600
0.092700
0.092800
0.092900
0.093000
0.093100
0.093200
0.093300
0.093400
0.093500
0.093600
0.093700
0.093800
0.093900
0.094000
0.094100
0.094200
0.094300
0.094400
0.094500
0.094600
0.094700
0.094800
0.094900
0.095000
0.095100
0.095200
0.095300
0.095400
0.095500
0.095600
0.095700
0.095800
0.095900
0.096000
0.096100
0.096200
0.096300
0.096400
0.096500
0.096600
0.096700
0.096800
0.096900
0.097000
0.097100
0.097200
0.097300
0.097400
0.097500
0.097600
0.097700
0.097800
0.097900
0.098000
0.098100
0.098200
0.098300
0.098400
0.098500
0.098600
0.098700
0.098800
0.098900
0.099000
0.099100
0.099200
0.099300
0.099400
0.099500
0.099600
0.099700
0.099800
0.099900
0.100000
0.100100
0.100200
0.100300
0.100400
0.100500
0.100600
0.100700
0.100800
0.100900
0.101000
0.101100
0.101200
0.101300
0.101400
0.101500
0.101600
0.101700
0.101800
0.101900
0.102000
0.102100
0.102200
0.102300
0.102400
0.102500
0.102600
0.102700
0.102800
0.102900
0.103000
0.103100
0.103200
0.103300
0.103400
0.103500
0.103600
0.103700
0.103800
0.103900
0.104000
0.104100
0.104200
0.104300
0.104400
0.104500
0.104600
0.104700
0.104800
0.104900
0.105000
0.105100
0.105200
0.105300
0.105400
0.105500
0.105600
0.105700
0.105800
0.105900
0.106000
0.106100
0.106200
0.106300
0.106400
0.106500
0.106600
0.106700
0.106800
0.106900
0.107000
0.107100
0.107200
0.107300
0.107400
0.107500
0.107600
0.107700
0.107800
0.107900
0.108000
0.108100
0.108200
0.108300
0.108400
0.108500
0.108600
0.108700
0.108800
0.108900
0.109000
0.109100
0.109200
0.109300
0.109400
0.109500
0.109600
0.109700
0.109800
0.109900
0.110000
0.110100
0.110200
0.110300
0.110400
0.110500
0.110600
0.110700
0.110800
0.110900
0.111000
0.111100
0.111200
0.111300
0.111400
0.111500
0.111600
0.111700
0.111800
0.111900
0.112000
0.112100
0.112200
0.112300
0.112400
0.112500
0.112600
0.112700
0.112800
0.112900
0.113000
0.113100
0.113200
0.113300
0.113400
0.113500
0.113600
0.113700
0.113800
0.113900
0.114000
0.114100
0.114200
0.114300
0.114400
0.114500
0.114600
0.114700
0.114800
0.114900
0.115000
0.115100
0.115200
0.115300
0.115400
0.115500
0.115600
0.115700
0.115800
0.115900
0.116000
0.116100
0.116200
0.116300
0.116400
0.116500
0.116600
0.116700
0.116800
0.116900
0.117000
0.117100
0.117200
0.117300
0.117400
0.117500
0.117600
0.117700
0.117800
0.117900
0.118000
0.118100
0.118200
0.118300
0.118400
0.118500
0.118600
0.118700
0.118800
0.118900
0.119000
0.119100
0.119200
0.119300
0.119400
0.119500
0.119600
0.119700
0.119800
0.119900
0.120000
0.120100
0.120200
0.120300
0.120400
0.120500
0.120600
0.120700
0.120800
0.120900
0.121000
0.121100
0.121200
0.121300
0.121400
0.121500
0.121600
0.121700
0.121800
0.121900
0.122000
0.122100
0.122200
0.122300
0.122400
0.122500
0.122600
0.122700
0.122800
0.122900
0.123000
0.123100
0.123200
0.123300
0.123400
0.123500
0.123600
0.123700
0.123800
0.123900
0.124000
0.124100
0.124200
0.124300
0.124400
0.124500
0.124600
0.124700
0.124800
0.124900
0.125000
0.125100
0.125200
0.125300
0.125400
0.125500
0.125600
0.125700
0.125800
0.125900
0.126000
0.126100
0.126200
0.126300
0.126400
0.126500
0.126600
0.126700
0.126800
0.126900
0.127000
0.127100
0.127200
0.127300
0.127400
0.127500
0.127600
0.127700
0.127800
0.127900
0.128000
0.128100
0.128200
0.128300
0.128400
0.128500
0.128600
0.128700
0.128800
0.128900
0.129000
0.129100
0.129200
0.129300
0.129400
0.129500
0.129600
0.129700
0.129800
0.129900
0.130000
0.130100
0.130200
0.130300
0.130400
0.130500
0.130600
0.130700
0.130800
0.130900
0.131000
0.131100
0.131200
0.131300
0.131400
0.131500
0.131600
0.131700
0.131800
0.131900
0.132000
0.132100
0.132200
0.132300
0.132400
0.132500
0.132600
0.132700
0.132800
0.132900
0.133000
0.133100
0.133200
0.133300
0.133400
0.133500
0.133600
0.133700
0.133800
0.133900
0.134000
0.134100
0.134200
0.134300
0.134400
0.134500
0.134600
0.134700
0.134800
0.134900
0.135000
0.135100
0.135200
0.135300
0.135400
0.135500
0.135600
0.135700
0.135800
0.135900
0.136000
0.136100
0.136200
0.136300
0.136400
0.136500
0.136600
0.136700
0.136800
0.136900
0.137000
0.137100
0.137200
0.137300
0.137400
0.137500
0.137600
0.137700
0.137800
0.137900
0.138000
0.138100
0.138200
0.138300
0.138400
0.138500
0.138600
0.138700
0.138800
0.138900
0.139000
0.139100
0.139200
0.139300
0.139400
0.139500
0.139600
0.139700
0.139800
0.139900
0.140000
0.140100
0.140200
0.140300
0.140400
0.140500
0.140600
0.140700
0.140800
0.140900
0.141000
0.141100
0.141200
0.141300
0.141400
0.141500
0.141600
0.141700
0.141800
0.141900
0.142000
0.142100
0.142200
0.142300
0.142400
0.142500
0.142600
0.142700
0.142800
0.142900
0.143000
0.143100
0.143200
0.143300
0.143400
0.143500
0.143600
0.143700
0.143800
0.143900
0.144000
0.144100
0.144200
0.144300
0.144400
0.144500
0.144600
0.144700
0.144800
0.144900
0.145000
0.145100
0.145200
0.145300
0.145400
0.145500
0.145600
0.145700
0.145800
0.145900
0.146000
0.146100
0.146200
0.146300
0.146400
0.146500
0.146600
0.146700
0.146800
0.146900
0.147000
0.147100
0.147200
0.147300
0.147400
0.147500
0.147600
0.147700
0.147800
0.147900
0.148000
0.148100
0.148200
0.148300
0.148400
0.148500
0.148600
0.148700
0.148800
0.148900
0.149000
0.149100
0.149200
0.149300
0.149400
0.149500
0.149600
0.149700
0.149800
0.149900
0.150000
0.150100
0.150200
0.150300
0.150400
0.150500
0.150600
0.150700
0.150800
0.150900
0.151000
0.151100
0.151200
0.151300
0.151400
0.151500
0.151600
0.151700
0.151800
0.151900
0.152000
0.152100
0.152200
0.152300
0.152400
0.152500
0.152600
0.152700
0.152800
0.152900
0.153000
0.153100
0.153200
0.153300
0.153400
0.153500
0.153600
0.153700
0.153800
0.153900
0.154000
0.154100
0.154200
0.154300
0.154400
0.154500
0.154600
0.154700
0.154800
0.154900
0.155000
0.155100
0.155200
0.155300
0.155400
0.155500
0.155600
0.155700
0.155800
0.155900
0.156000
0.156100
0.156200
0.156300
0.156400
0.156500
0.156600
0.156700
0.156800
0.156900
0.157000
0.157100
0.157200
0.157300
0.157400
0.157500
0.157600
0.157700
0.157800
0.157900
0.158000
0.158100
0.158200
0.158300
0.158400
0.158500
0.158600
0.158700
0.158800
0.158900
0.159000
0.159100
0.159200
0.159300
0.159400
0.159500
0.159600
0.159700
0.159800
0.159900
0.160000
0.160100
0.160200
0.160300
0.160400
0.160500
0.160600
0.160700
0.160800
0.160900
0.161000
0.161100
0.161200
0.161300
0.161400
0.161500
0.161600
0.161700
0.161800
0.161900
0.162000
0.162100
0.162200
0.162300
0.162400
0.162500
0.162600
0.162700
0.162800
0.162900
0.163000
0.163100
0.163200
0.163300
0.163400
0.163500
0.163600
0.163700
0.163800
0.163900
0.164000
0.164100
0.164200
0.164300
0.164400
0.164500
0.164600
0.164700
0.164800
0.164900
0.165000
0.165100
0.165200
0.165300
0.165400
0.165500
0.165600
0.165700
0.165800
0.165900
0.166000
0.166100
0.166200
0.166300
0.166400
0.166500
0.166600
0.166700
0.166800
0.166900
0.167000
0.167100
0.167200
0.167300
0.167400
0.167500
0.167600
0.167700
0.167800
0.167900
0.168000
0.168100
0.168200
0.168300
0.168400
0.168500
0.168600
0.168700
0.168800
0.168900
0.169000
0.169100
0.169200
0.169300
0.169400
0.169500
0.169600
0.169700
0.169800
0.169900
0.170000
0.170100
0.170200
0.170300
0.170400
0.170500
0.170600
0.170700
0.170800
0.170900
0.171000
0.171100
0.171200
0.171300
0.171400
0.171500
0.171600
0.171700
0.171800
0.171900
0.172000
0.172100
0.172200
0.172300
0.172400
0.172500
0.172600
0.172700
0.172800
0.172900
0.173000
0.173100
0.173200
0.173300
0.173400
0.173500
0.173600
0.173700
0.173800
0.173900
0.174000
0.174100
0.174200
0.174300
0.174400
0.174500
0.174600
0.174700
0.174800
0.174900
0.175000
0.175100
0.175200
0.175300
0.175400
0.175500
0.175600
0.175700
0.175800
0.175900
0.176000
0.176100
0.176200
0.176300
0.176400
0.176500
0.176600
0.176700
0.176800
0.176900
0.177000
0.177100
0.177200
0.177300
0.177400
0.177500
0.177600
0.177700
0.177800
0.177900
0.178000
0.178100
0.178200
0.178300
0.178400
0.178500
0.178600
0.178700
0.178800
0.178900
0.179000
0.179100
0.179200
0.179300
0.179400
0.179500
0.179600
0.179700
0.179800
0.179900
0.180000
0.180100
0.180200
0.180300
0.180400
0.180500
0.180600
0.180700
0.180800
0.180900
0.181000
0.181100
0.181200
0.181300
0.181400
0.181500
0.181600
0.181700
0.181800
0.181900
0.182000
0.182100
0.182200
0.182300
0.182400
0.182500
0.182600
0.182700
0.182800
0.182900
0.183000
0.183100
0.183200
0.183300
0.183400
0.183500
0.183600
0.183700
0.183800
0.183900
0.184000
0.184100
0.184200
0.184300
0.184400
0.184500
0.184600
0.184700
0.184800
0.184900
0.185000
0.185100
0.185200
0.185300
0.185400
0.185500
0.185600
0.185700
0.185800
0.185900
0.186000
0.186100
0.186200
0.186300
0.186400
0.186500
0.186600
0.186700
0.186800
0.186900
0.187000
0.187100
0.187200
0.187300
0.187400
0.187500
0.187600
0.187700
0.187800
0.187900
0.188000
0.188100
0.188200
0.188300
0.188400
0.188500
0.188600
0.188700
0.188800
0.188900
0.189000
0.189100
0.189200
0.189300
0.189400
0.189500
0.189600
0.189700
0.189800
0.189900
0.190000
0.190100
0.190200
0.190300
0.190400
0.190500
0.190600
0.190700
0.190800
0.190900
0.191000
0.191100
0.191200
0.191300
0.191400
0.191500
0.191600
0.191700
0.191800
0.191900
0.192000
0.192100
0.192200
0.192300
0.192400
0.192500
0.192600
0.192700
0.192800
0.192900
0.193000
0.193100
0.193200
0.193300
0.193400
0.193500
0.193600
0.193700
0.193800
0.193900
0.194000
0.194100
0.194200
0.194300
0.194400
0.194500
0.194600
0.194700
0.194800
0.194900
0.195000
0.195100
0.195200
0.195300
0.195400
0.195500
0.195600
0.195700
0.195800
0.195900
0.196000
0.196100
0.196200
0.196300
0.196400
0.196500
0.196600
0.196700
0.196800
0.196900
0.197000
0.197100
0.197200
0.197300
0.197400
0.197500
0.197600
0.197700
0.197800
0.197900
0.198000
0.198100
0.198200
0.198300
0.198400
0.198500
0.198600
0.198700
0.198800
0.198900
0.199000
0.199100
0.199200
0.199300
0.199400
0.199500
0.199600
0.199700
0.199800
0.199900
0.200000
0.200100
0.200200
0.200300
0.200400
0.200500
0.200600
0.200700
0.200800
0.200900
0.201000
0.201100
0.201200
0.201300
0.201400
0.201500
0.201600
0.201700
0.201800
0.201900
0.202000
0.202100
0.202200
0.202300
0.202400
0.202500
0.202600
0.202700
0.202800
0.202900
0.203000
0.203100
0.203200
0.203300
0.203400
0.203500
0.203600
0.203700
0.203800
0.203900
0.204000
0.204100
0.204200
0.204300
0.204400
0.204500
0.204600
0.204700
0.204800
0.204900
0.205000
0.205100
0.205200
0.205300
0.205400
0.205500
0.205600
0.205700
0.205800
0.205900
0.206000
0.206100
0.206200
0.206300
0.206400
0.206500
0.206600
0.206700
0.206800
0.206900
0.207000
0.207100
0.207200
0.207300
0.207400
0.207500
0.207600
0.207700
0.207800
0.207900
0.208000
0.208100
0.208200
0.208300
0.208400
0.208500
0.208600
0.208700
0.208800
0.208900
0.209000
0.209100
0.209200
0.209300
0.209400
0.209500
0.209600
0.209700
0.209800
0.209900
0.210000
0.210100
0.210200
0.210300
0.210400
0.210500
0.210600
0.210700
0.210800
0.210900
0.211000
0.211100
0.211200
0.211300
0.211400
0.211500
0.211600
0.211700
0.211800
0.211900
0.212000
0.212100
0.212200
0.212300
0.212400
0.212500
0.212600
0.212700
0.212800
0.212900
0.213000
0.213100
0.213200
0.213300
0.213400
0.213500
0.213600
0.213700
0.213800
0.213900
0.214000
0.214100
0.214200
0.214300
0.214400
0.214500
0.214600
0.214700
0.214800
0.214900
0.215000
0.215100
0.215200
0.215300
0.215400
0.215500
0.215600
0.215700
0.215800
0.215900
0.216000
0.216100
0.216200
0.216300
0.216400
0.216500
0.216600
0.216700
0.216800
0.216900
0.217000
0.217100
0.217200
0.217300
0.217400
0.217500
0.217600
0.217700
0.217800
0.217900
0.218000
0.218100
0.218200
0.218300
0.218400
0.218500
0.218600
0.218700
0.218800
0.218900
0.219000
0.219100
0.219200
0.219300
0.219400
0.219500
0.219600
0.219700
0.219800
0.219900
0.220000
0.220100
0.220200
0.220300
0.220400
0.220500
0.220600
0.220700
0.220800
0.220900
0.221000
0.221100
0.221200
0.221300
0.221400
0.221500