# vtk DataFile Version 2.0
Generated Volume Mesh
ASCII
DATASET UNSTRUCTURED_GRID
POINTS 2428 float
-1.031076 1.186381 0.311740
-0.000743 1.219163 0.035444
-0.000967 1.099206 0.032044
-1.032014 1.069980 0.282575
-1.116806 1.154853 0.418555
-1.117850 1.041355 0.379656
-1.116791 1.154369 0.419915
-1.021565 1.002815 0.470969
-1.020546 1.111438 0.521980
0.005320 1.017746 0.672183
0.004539 0.918429 0.604821
-0.000162 0.976945 0.728714
-0.001081 0.881890 0.655474
-1.251104 0.981704 0.742908
-1.252466 0.886653 0.669657
-1.307534 0.999064 0.720857
-1.308892 0.902231 0.649974
-1.309358 0.902563 0.649530
-1.308000 0.999433 0.720361
-1.307305 0.911492 0.826610
-1.308723 0.823801 0.744691
-1.308262 0.824178 0.744279
-1.306845 0.911913 0.826151
-1.250693 0.930705 0.804528
-1.252097 0.840976 0.724845
0.000440 0.925950 0.790340
-0.000543 0.836214 0.710670
0.007008 0.878130 0.840958
0.005980 0.793375 0.755994
-1.016145 0.738780 0.974306
-1.017754 0.668483 0.877054
-1.023333 0.544686 1.087600
-1.025087 0.494626 0.978541
0.010401 0.289538 1.157419
0.009039 0.264794 1.039991
0.010183 0.222437 1.169488
0.008892 0.204597 1.050811
-1.024683 -0.037008 1.191218
-1.026156 -0.028555 1.071515
-1.025794 -0.256924 1.154095
-1.027187 -0.225670 1.038243
0.006769 -0.504471 1.046789
0.005747 -0.448940 0.940397
0.006497 -0.563996 1.013498
0.005443 -0.502383 0.910503
-1.028078 -0.779010 0.862470
-1.029240 -0.696510 0.775307
-1.115132 -0.856045 0.783408
-1.116269 -0.766470 0.703548
-1.115134 -0.856993 0.782319
-1.021059 -0.827773 0.624349
-1.020068 -0.925524 0.693986
0.005466 -1.013208 0.534849
0.004699 -0.905737 0.481418
0.000203 -1.042494 0.471453
-0.000802 -0.931969 0.424634
-1.250775 -1.065485 0.460830
-1.252723 -0.954986 0.413992
-1.307527 -1.055274 0.486323
-1.309420 -0.945965 0.436776
-1.309892 -0.945745 0.437279
-1.308000 -1.055027 0.486885
-1.305855 -1.104410 0.358096
-1.307981 -0.989973 0.321927
-1.307526 -0.989796 0.322462
-1.305401 -1.104212 0.358693
-1.249536 -1.094124 0.386137
-1.251614 -0.980636 0.347094
0.001067 -1.071081 0.396758
-0.000031 -0.957645 0.357731
0.007802 -1.091696 0.330121
0.006776 -0.976021 0.298107
-1.013992 -1.140720 0.132892
-1.015729 -1.021436 0.119748
-1.017653 -1.143467 -0.091940
-1.019966 -1.023902 -0.081635
0.021082 -1.073897 -0.328067
0.018355 -0.959565 -0.291577
0.022194 -1.051265 -0.392386
0.019374 -0.939272 -0.349251
-1.008379 -0.948077 -0.651107
-1.012045 -0.848379 -0.584313
-1.007060 -0.806626 -0.823573
-1.010867 -0.721614 -0.738871
0.026078 -0.578597 -0.964946
0.022411 -0.514545 -0.863454
0.025402 -0.519956 -0.999657
0.021663 -0.462033 -0.894540
-1.013500 -0.308802 -1.123248
-1.017348 -0.276461 -1.007688
-0.001108 0.199628 -1.135432
0.006384 0.130245 -1.142113
0.004156 0.121972 -1.022369
-0.003333 0.184221 -1.016434
-1.251908 0.176039 -1.167430
-1.254886 0.160634 -1.048416
-1.307551 0.146768 -1.172287
-1.310593 0.134302 -1.052932
-1.311043 0.133740 -1.053003
-1.308000 0.146141 -1.172364
-1.311277 0.282224 -1.149913
-1.313982 0.255624 -1.032892
-1.313505 0.255090 -1.033002
-1.310799 0.281627 -1.150038
-1.253810 0.254960 -1.154408
-1.256591 0.231318 -1.036754
-0.002824 0.278541 -1.122422
-0.004877 0.254923 -1.004784
0.001777 0.346681 -1.106534
-0.000185 0.316029 -0.990483
-1.025261 0.516115 -1.065342
-1.027182 0.468078 -0.955367
-1.035855 0.712274 -0.955882
-1.037351 0.643834 -0.857323
-0.004784 0.914587 -0.768415
-0.005214 0.825948 -0.687501
-0.005177 0.959122 -0.716647
-0.005568 0.865882 -0.641048
-1.039083 1.105582 -0.494435
-1.039617 0.997830 -0.441614
-1.037939 1.183956 -0.285571
-1.038443 1.068034 -0.254535
-0.001664 1.219103 -0.032783
-0.001738 1.099152 -0.029082
-1.018890 1.161264 -0.359890
0.016830 1.214080 -0.110450
0.016806 1.094656 -0.098695
-1.019411 1.047687 -0.321097
-1.019198 1.137252 -0.423727
-1.019801 1.026179 -0.378261
0.013956 1.005923 -0.654640
0.013592 0.907838 -0.585504
0.015231 0.860395 -0.823788
0.014702 0.777429 -0.737081
-1.015395 0.647177 -0.997641
-1.017029 0.585481 -0.894684
-1.012136 0.587214 -1.031093
-1.013991 0.531748 -0.924674
0.014336 0.422259 -1.083550
0.012503 0.383822 -0.969882
0.085157 0.240785 -1.127814
0.083057 0.221263 -1.009401
0.022324 0.051875 -1.144572
0.019906 0.051745 -1.024580
-0.996119 -0.166322 -1.152970
-0.999406 -0.148875 -1.034241
-1.027473 -0.179860 -1.029996
-1.023950 -0.200891 -1.148175
-0.999971 -0.208239 -1.023704
-0.996317 -0.232735 -1.141186
0.043774 -0.450255 -1.034377
0.040097 -0.399562 -0.925603
0.046177 -0.642317 -0.920939
0.042419 -0.571582 -0.823994
-0.987879 -0.859123 -0.766334
-0.991679 -0.768595 -0.687533
-0.988286 -0.902370 -0.713598
-0.992040 -0.807379 -0.640243
0.042817 -1.020622 -0.463377
0.039846 -0.911812 -0.412762
0.039166 -1.094668 -0.252952
0.036565 -0.978147 -0.224240
-0.999599 -1.147182 -0.014089
-1.001786 -1.027196 -0.011865
-0.998532 -1.146432 0.054592
-1.000472 -1.026525 0.049649
0.022801 -1.109913 0.253646
0.021623 -0.992326 0.229666
0.087759 -1.056459 0.434987
0.086764 -0.944393 0.392039
0.018775 -0.975615 0.604203
0.018059 -0.872047 0.543556
-1.006148 -0.877558 0.756481
-1.007166 -0.784786 0.680322
-1.036217 -0.765380 0.703621
-1.035116 -0.855899 0.782467
-1.009720 -0.745189 0.725747
-1.008540 -0.833387 0.807143
0.025624 -0.629173 0.971270
0.024602 -0.560778 0.872652
0.026577 -0.434500 1.080164
0.025501 -0.386280 0.970267
-1.005889 -0.181443 1.171540
-1.007332 -0.158033 1.053831
-1.005562 -0.114240 1.182899
-1.007026 -0.097726 1.064034
0.029392 0.145290 1.178223
0.028116 0.135480 1.058629
0.030023 0.364793 1.138660
0.028610 0.332182 1.023179
-1.004027 0.613981 1.052615
-1.005784 0.556687 0.947169
-1.001859 0.673336 1.018043
-1.003543 0.609876 0.916198
0.021620 0.820495 0.894468
0.020495 0.741750 0.803919
0.087284 0.951900 0.759038
0.086360 0.859442 0.682537
0.018739 1.059675 0.605381
0.017991 0.955978 0.544992
-1.007432 1.142418 0.449411
-1.008389 1.030562 0.405925
-1.037786 1.041230 0.377841
-1.036772 1.154333 0.418060
-1.011633 1.050748 0.349081
-1.010583 1.164919 0.386032
0.019752 1.214327 0.112612
0.019414 1.094877 0.101153
0.105270 1.099516 0.000008
0.105376 1.219542 0.000009
0.025271 1.099604 0.001118
0.025397 1.219602 0.000996
-1.107472 -0.183390 -1.031775
-1.104002 -0.204497 -1.149876
-1.104047 -0.203073 -1.150128
-1.012784 -0.088540 -1.162048
-1.015784 -0.079301 -1.042415
-1.107514 -0.182118 -1.032001
-0.516195 1.209444 0.174428
-0.516893 1.090568 0.158089
-1.092608 1.176254 0.351171
-1.095652 1.060284 0.320433
-1.091120 1.017945 0.438772
-1.088272 1.127433 0.487793
-0.507882 1.067551 0.598295
-0.508644 0.963257 0.538940
0.034466 0.996089 0.702692
0.033594 0.898841 0.632379
-0.834065 0.979511 0.738147
-0.417111 0.977849 0.733372
-0.418245 0.882798 0.660122
-0.835373 0.884468 0.664898
-0.416568 0.926862 0.794998
-0.833616 0.928523 0.799768
-0.834971 0.838788 0.720087
-0.417758 0.837114 0.715317
0.035575 0.904315 0.813612
0.034557 0.817045 0.731241
-0.504783 0.810203 0.910231
-0.506057 0.732450 0.818829
-1.087112 0.582964 1.070198
-1.110692 0.647338 1.035570
-1.082943 0.707969 0.996991
-1.086575 0.639199 0.898605
-1.112347 0.588241 0.931100
-1.091001 0.531278 0.961932
-0.506632 0.419456 1.128938
-0.508222 0.381849 1.014993
0.036908 0.255953 1.163669
0.035572 0.234659 1.045555
-0.507553 0.093073 1.187192
-0.508871 0.088364 1.067293
-1.101262 -0.196461 1.169626
-1.101137 -0.099108 1.186066
-1.097786 -0.076001 1.067962
-1.106776 -0.163125 1.054066
-0.509934 -0.383532 1.106681
-0.511062 -0.339868 0.994914
0.033246 -0.534464 1.030327
0.032198 -0.475863 0.925573
-0.511225 -0.675032 0.944093
-0.512408 -0.602575 0.848428
-1.090102 -0.807975 0.834888
-1.093350 -0.724286 0.748888
-1.090243 -0.806692 0.653916
-1.087423 -0.903154 0.725277
-0.507844 -0.972708 0.615182
-0.508539 -0.869792 0.553442
0.034720 -1.029146 0.501027
0.033828 -0.920119 0.450853
-0.833706 -1.056793 0.464465
-0.416730 -1.048758 0.468125
-0.418336 -0.938206 0.421300
-0.835595 -0.946297 0.417636
-0.415581 -1.077359 0.393428
-0.832489 -1.085434 0.389776
-0.834504 -0.971942 0.350735
-0.417302 -0.963881 0.354376
0.036254 -1.080709 0.366550
0.035191 -0.966066 0.331012
-0.503573 -1.119185 0.233031
-0.504805 -1.001323 0.210412
-1.082125 -1.147419 -0.051086
-1.106861 -1.149133 0.021643
-1.080225 -1.145425 0.093870
-1.084026 -1.025919 0.082587
-1.108875 -1.029106 0.021817
-1.086521 -1.027742 -0.042621
-0.498521 -1.115663 -0.211879
-0.501094 -0.998002 -0.188322
0.048264 -1.062624 -0.359772
0.045476 -0.949407 -0.319944
-0.493226 -1.005544 -0.524969
-0.496425 -0.899049 -0.469669
-1.083092 -0.850756 -0.780385
-1.084028 -0.913373 -0.704050
-1.083082 -0.822299 -0.625242
-1.091075 -0.767034 -0.694142
-0.490458 -0.697698 -0.899490
-0.494092 -0.622699 -0.805812
0.052362 -0.548861 -0.982167
0.048657 -0.487845 -0.878817
-0.493775 -0.415934 -1.068128
-0.497739 -0.370484 -0.957081
0.034438 0.168416 -1.138353
0.032195 0.156616 -1.018922
-0.834855 0.184098 -1.155935
-0.417944 0.192008 -1.145075
-0.420587 0.176598 -1.026068
-0.837767 0.168689 -1.036937
-0.419754 0.270931 -1.132075
-0.836757 0.263015 -1.142930
-0.839470 0.239376 -1.025269
-0.422208 0.247296 -1.014390
0.031394 0.310521 -1.114947
0.029391 0.283339 -0.998053
-0.512265 0.431387 -1.089460
-0.514261 0.391962 -0.976124
-1.098987 0.677005 -0.980453
-1.121463 0.614166 -1.018469
-1.092632 0.550478 -1.050863
-1.096501 0.500694 -0.941626
-1.123127 0.554271 -0.914446
-1.102699 0.610047 -0.880908
-0.520964 0.818349 -0.866405
-0.521768 0.739309 -0.776118
0.021634 0.937261 -0.742676
0.021216 0.846270 -0.664391
-0.522837 1.037749 -0.610539
-0.523286 0.936646 -0.545901
-1.114082 1.166759 -0.344762
-1.114935 1.132088 -0.437227
-1.110772 1.018376 -0.397935
-1.118800 1.050073 -0.315500
-0.520417 1.208380 -0.159266
-0.520561 1.089664 -0.141759
-0.500957 1.194444 -0.235576
-0.501158 1.077190 -0.210125
-1.045649 1.149890 -0.391888
-1.046210 1.037513 -0.349740
-0.502465 1.077106 -0.543947
-0.503060 0.971900 -0.486299
0.090621 0.904145 -0.779163
0.090386 0.968518 -0.704355
0.085234 0.879435 -0.623577
0.094266 0.822399 -0.690864
[...]
POINT_DATA 2428
SCALARS var1 float
LOOKUP_TABLE default
0.000000
0.000100
0.000200
0.000300
0.000400
0.000500
0.000600
0.000700
0.000800
0.000900
0.001000
0.001100
0.001200
0.001300
0.001400
0.001500
0.001600
0.001700
0.001800
0.001900
0.002000
0.002100
0.002200
0.002300
0.002400
0.002500
0.002600
0.002700
0.002800
0.002900
0.003000
0.003100
0.003200
0.003300
0.003400
0.003500
0.003600
0.003700
0.003800
0.003900
0.004000
0.004100
0.004200
0.004300
0.004400
0.004500
0.004600
0.004700
0.004800
0.004900
0.005000
0.005100
0.005200
0.005300
0.005400
0.005500
0.005600
0.005700
0.005800
0.005900
0.006000
0.006100
0.006200
0.006300
0.006400
0.006500
0.006600
0.006700
0.006800
0.006900
0.007000
0.007100
0.007200
0.007300
0.007400
0.007500
0.007600
0.007700
0.007800
0.007900
0.008000
0.008100
0.008200
0.008300
0.008400
0.008500
0.008600
0.008700
0.008800
0.008900
0.009000
0.009100
0.009200
0.009300
0.009400
0.009500
0.009600
0.009700
0.009800
0.009900
0.010000
0.010100
0.010200
0.010300
0.010400
0.010500
0.010600
0.010700
0.010800
0.010900
0.011000
0.011100
0.011200
0.011300
0.011400
0.011500
0.011600
0.011700
0.011800
0.011900
0.012000
0.012100
0.012200
0.012300
0.012400
0.012500
0.012600
0.012700
0.012800
0.012900
0.013000
0.013100
0.013200
0.013300
0.013400
0.013500
0.013600
0.013700
0.013800
0.013900
0.014000
0.014100
0.014200
0.014300
0.014400
0.014500
0.014600
0.014700
0.014800
0.014900
0.015000
0.015100
0.015200
0.015300
0.015400
0.015500
0.015600
0.015700
0.015800
0.015900
0.016000
0.016100
0.016200
0.016300
0.016400
0.016500
0.016600
0.016700
0.016800
0.016900
0.017000
0.017100
0.017200
0.017300
0.017400
0.017500
0.017600
0.017700
0.017800
0.017900
0.018000
0.018100
0.018200
0.018300
0.018400
0.018500
0.018600
0.018700
0.018800
0.018900
0.019000
0.019100
0.019200
0.019300
0.019400
0.019500
0.019600
0.019700
0.019800
0.019900
0.020000
0.020100
0.020200
0.020300
0.020400
0.020500
0.020600
0.020700
0.020800
0.020900
0.021000
0.021100
0.021200
0.021300
0.021400
0.021500
0.021600
0.021700
0.021800
0.021900
0.022000
0.022100
0.022200
0.022300
0.022400
0.022500
0.022600
0.022700
0.022800
0.022900
0.023000
0.023100
0.023200
0.023300
0.023400
0.023500
0.023600
0.023700
0.023800
0.023900
0.024000
0.024100
0.024200
0.024300
0.024400
0.024500
0.024600
0.024700
0.024800
0.024900
0.025000
0.025100
0.025200
0.025300
0.025400
0.025500
0.025600
0.025700
0.025800
0.025900
0.026000
0.026100
0.026200
0.026300
0.026400
0.026500
0.026600
0.026700
0.026800
0.026900
0.027000
0.027100
0.027200
0.027300
0.027400
0.027500
0.027600
0.027700
0.027800
0.027900
0.028000
0.028100
0.028200
0.028300
0.028400
0.028500
0.028600
0.028700
0.028800
0.028900
0.029000
0.029100
0.029200
0.029300
0.029400
0.029500
0.029600
0.029700
0.029800
0.029900
0.030000
0.030100
0.030200
0.030300
0.030400
0.030500
0.030600
0.030700
0.030800
0.030900
0.031000
0.031100
0.031200
0.031300
0.031400
0.031500
0.031600
0.031700
0.031800
0.031900
0.032000
0.032100
0.032200
0.032300
0.032400
0.032500
0.032600
0.032700
0.032800
0.032900
0.033000
0.033100
0.033200
0.033300
0.033400
0.033500
0.033600
0.033700
0.033800
0.033900
0.034000
0.034100
0.034200
0.034300
0.034400
0.034500
0.034600
0.034700
0.034800
0.034900
0.035000
0.035100
0.035200
0.035300
0.035400
0.035500
0.035600
0.035700
0.035800
0.035900
0.036000
0.036100
0.036200
0.036300
0.036400
0.036500
0.036600
0.036700
0.036800
0.036900
0.037000
0.037100
0.037200
0.037300
0.037400
0.037500
0.037600
0.037700
0.037800
0.037900
0.038000
0.038100
0.038200
0.038300
0.038400
0.038500
0.038600
0.038700
0.038800
0.038900
0.039000
0.039100
0.039200
0.039300
0.039400
0.039500
0.039600
0.039700
0.039800
0.039900
0.040000
0.040100
0.040200
0.040300
0.040400
0.040500
0.040600
0.040700
0.040800
0.040900
0.041000
0.041100
0.041200
0.041300
0.041400
0.041500
0.041600
0.041700
0.041800
0.041900
0.042000
0.042100
0.042200
0.042300
0.042400
0.042500
0.042600
0.042700
0.042800
0.042900
0.043000
0.043100
0.043200
0.043300
0.043400
0.043500
0.043600
0.043700
0.043800
0.043900
0.044000
0.044100
0.044200
0.044300
0.044400
0.044500
0.044600
0.044700
0.044800
0.044900
0.045000
0.045100
0.045200
0.045300
0.045400
0.045500
0.045600
0.045700
0.045800
0.045900
0.046000
0.046100
0.046200
0.046300
0.046400
0.046500
0.046600
0.046700
0.046800
0.046900
0.047000
0.047100
0.047200
0.047300
0.047400
0.047500
0.047600
0.047700
0.047800
0.047900
0.048000
0.048100
0.048200
0.048300
0.048400
0.048500
0.048600
0.048700
0.048800
0.048900
0.049000
0.049100
0.049200
0.049300
0.049400
0.049500
0.049600
0.049700
0.049800
0.049900
0.050000
0.050100
0.050200
0.050300
0.050400
0.050500
0.050600
0.050700
0.050800
0.050900
0.051000
0.051100
0.051200
0.051300
0.051400
0.051500
0.051600
0.051700
0.051800
0.051900
0.052000
0.052100
0.052200
0.052300
0.052400
0.052500
0.052600
0.052700
0.052800
0.052900
0.053000
0.053100
0.053200
0.053300
0.053400
0.053500
0.053600
0.053700
0.053800
0.053900
0.054000
0.054100
0.054200
0.054300
0.054400
0.054500
0.054600
0.054700
0.054800
0.054900
0.055000
0.055100
0.055200
0.055300
0.055400
0.055500
0.055600
0.055700
0.055800
0.055900
0.056000
0.056100
0.056200
0.056300
0.056400
0.056500
0.056600
0.056700
0.056800
0.056900
0.057000
0.057100
0.057200
0.057300
0.057400
0.057500
0.057600
0.057700
0.057800
0.057900
0.058000
0.058100
0.058200
0.058300
0.058400
0.058500
0.058600
0.058700
0.058800
0.058900
0.059000
0.059100
0.059200
0.059300
0.059400
0.059500
0.059600
0.059700
0.059800
0.059900
0.060000
0.060100
0.060200
0.060300
0.060400
0.060500
0.060600
0.060700
0.060800
0.060900
0.061000
0.061100
0.061200
0.061300
0.061400
0.061500
0.061600
0.061700
0.061800
0.061900
0.062000
0.062100
0.062200
0.062300
0.062400
0.062500
0.062600
0.062700
0.062800
0.062900
0.063000
0.063100
0.063200
0.063300
0.063400
0.063500
0.063600
0.063700
0.063800
0.063900
0.064000
0.064100
0.064200
0.064300
0.064400
0.064500
0.064600
0.064700
0.064800
0.064900
0.065000
0.065100
0.065200
0.065300
0.065400
0.065500
0.065600
0.065700
0.065800
0.065900
0.066000
0.066100
0.066200
0.066300
0.066400
0.066500
0.066600
0.066700
0.066800
0.066900
0.067000
0.067100
0.067200
0.067300
0.067400
0.067500
0.067600
0.067700
0.067800
0.067900
0.068000
0.068100
0.068200
0.068300
0.068400
0.068500
0.068600
0.068700
0.068800
0.068900
0.069000
0.069100
0.069200
0.069300
0.069400
0.069500
0.069600
0.069700
0.069800
0.069900
0.070000
0.070100
0.070200
0.070300
0.070400
0.070500
0.070600
0.070700
0.070800
0.070900
0.071000
0.071100
0.071200
0.071300
0.071400
0.071500
0.071600
0.071700
0.071800
0.071900
0.072000
0.072100
0.072200
0.072300
0.072400
0.072500
0.072600
0.072700
0.072800
0.072900
0.073000
0.073100
0.073200
0.073300
0.073400
0.073500
0.073600
0.073700
0.073800
0.073900
0.074000
0.074100
0.074200
0.074300
0.074400
0.074500
0.074600
0.074700
0.074800
0.074900
0.075000
0.075100
0.075200
0.075300
0.075400
0.075500
0.075600
0.075700
0.075800
0.075900
0.076000
0.076100
0.076200
0.076300
0.076400
0.076500
0.076600
0.076700
0.076800
0.076900
0.077000
0.077100
0.077200
0.077300
0.077400
0.077500
0.077600
0.077700
0.077800
0.077900
0.078000
0.078100
0.078200
0.078300
0.078400
0.078500
0.078600
0.078700
0.078800
0.078900
0.079000
0.079100
0.079200
0.079300
0.079400
0.079500
0.079600
0.079700
0.079800
0.079900
0.080000
0.080100
0.080200
0.080300
0.080400
0.080500
0.080600
0.080700
0.080800
0.080900
0.081000
0.081100
0.081200
0.081300
0.081400
0.081500
0.081600
0.081700
0.081800
0.081900
0.082000
0.082100
0.082200
0.082300
0.082400
0.082500
0.082600
0.082700
0.082800
0.082900
0.083000
0.083100
0.083200
0.083300
0.083400
0.083500
0.083600
0.083700
0.083800
0.083900
0.084000
0.084100
0.084200
0.084300
0.084400
0.084500
0.084600
0.084700
0.084800
0.084900
0.085000
0.085100
0.085200
0.085300
0.085400
0.085500
0.085600
0.085700
0.085800
0.085900
0.086000
0.086100
0.086200
0.086300
0.086400
0.086500
0.086600
0.086700
0.086800
0.086900
0.087000
0.087100
0.087200
0.087300
0.087400
0.087500
0.087600
0.087700
0.087800
0.087900
0.088000
0.088100
0.088200
0.088300
0.088400
0.088500
0.088600
0.088700
0.088800
0.088900
0.089000
0.089100
0.089200
0.089300
0.089400
0.089500
0.089600
0.089700
0.089800
0.089900
0.090000
0.090100
0.090200
0.090300
0.090400
0.090500
0.090600
0.090700
0.090800
0.090900
0.091000
0.091100
0.091200
0.091300
0.091400
0.091500
0.091600
0.091700
0.091800
0.091900
0.092000
0.092100
0.092200
0.092300
0.092400
0.092500
0.092600
0.092700
0.092800
0.092900
0.093000
0.093100
0.093200
0.093300
0.093400
0.093500
0.093600
0.093700
0.093800
0.093900
0.094000
0.094100
0.094200
0.094300
0.094400
0.094500
0.094600
0.094700
0.094800
0.094900
0.095000
0.095100
0.095200
0.095300
0.095400
0.095500
0.095600
0.095700
0.095800
0.095900
0.096000
0.096100
0.096200
0.096300
0.096400
0.096500
0.096600
0.096700
0.096800
0.096900
0.097000
0.097100
0.097200
0.097300
0.097400
0.097500
0.097600
0.097700
0.097800
0.097900
0.098000
0.098100
0.098200
0.098300
0.098400
0.098500
0.098600
0.098700
0.098800
0.098900
0.099000
0.099100
0.099200
0.099300
0.099400
0.099500
0.099600
0.099700
0.099800
0.099900
0.100000
0.100100
0.100200
0.100300
0.100400
0.100500
0.100600
0.100700
0.100800
0.100900
0.101000
0.101100
0.101200
0.101300
0.101400
0.101500
0.101600
0.101700
0.101800
0.101900
0.102000
0.102100
0.102200
0.102300
0.102400
0.102500
0.102600
0.102700
0.102800
0.102900
0.103000
0.103100
0.103200
0.103300
0.103400
0.103500
0.103600
0.103700
0.103800
0.103900
0.104000
0.104100
0.104200
0.104300
0.104400
0.104500
0.104600
0.104700
0.104800
0.104900
0.105000
0.105100
0.105200
0.105300
0.105400
0.105500
0.105600
0.105700
0.105800
0.105900
0.106000
0.106100
0.106200
0.106300
0.106400
0.106500
0.106600
0.106700
0.106800
0.106900
0.107000
0.107100
0.107200
0.107300
0.107400
0.107500
0.107600
0.107700
0.107800
0.107900
0.108000
0.108100
0.108200
0.108300
0.108400
0.108500
0.108600
0.108700
0.108800
0.108900
0.109000
0.109100
0.109200
0.109300
0.109400
0.109500
0.109600
0.109700
0.109800
0.109900
0.110000
0.110100
0.110200
0.110300
0.110400
0.110500
0.110600
0.110700
0.110800
0.110900
0.111000
0.111100
0.111200
0.111300
0.111400
0.111500
0.111600
0.111700
0.111800
0.111900
0.112000
0.112100
0.112200
0.112300
0.112400
0.112500
0.112600
0.112700
0.112800
0.112900
0.113000
0.113100
0.113200
0.113300
0.113400
0.113500
0.113600
0.113700
0.113800
0.113900
0.114000
0.114100
0.114200
0.114300
0.114400
0.114500
0.114600
0.114700
0.114800
0.114900
0.115000
0.115100
0.115200
0.115300
0.115400
0.115500
0.115600
0.115700
0.115800
0.115900
0.116000
0.116100
0.116200
0.116300
0.116400
0.116500
0.116600
0.116700
0.116800
0.116900
0.117000
0.117100
0.117200
0.117300
0.117400
0.117500
0.117600
0.117700
0.117800
0.117900
0.118000
0.118100
0.118200
0.118300
0.118400
0.118500
0.118600
0.118700
0.118800
0.118900
0.119000
0.119100
0.119200
0.119300
0.119400
0.119500
0.119600
0.119700
0.119800
0.119900
0.120000
0.120100
0.120200
0.120300
0.120400
0.120500
0.120600
0.120700
0.120800
0.120900
0.121000
0.121100
0.121200
0.121300
0.121400
0.121500
0.121600
0.121700
0.121800
0.121900
0.122000
0.122100
0.122200
0.122300
0.122400
0.122500
0.122600
0.122700
0.122800
0.122900
0.123000
0.123100
0.123200
0.123300
0.123400
0.123500
0.123600
0.123700
0.123800
0.123900
0.124000
0.124100
0.124200
0.124300
0.124400
0.124500
0.124600
0.124700
0.124800
0.124900
0.125000
0.125100
0.125200
0.125300
0.125400
0.125500
0.125600
0.125700
0.125800
0.125900
0.126000
0.126100
0.126200
0.126300
0.126400
0.126500
0.126600
0.126700
0.126800
0.126900
0.127000
0.127100
0.127200
0.127300
0.127400
0.127500
0.127600
0.127700
0.127800
0.127900
0.128000
0.128100
0.128200
0.128300
0.128400
0.128500
0.128600
0.128700
0.128800
0.128900
0.129000
0.129100
0.129200
0.129300
0.129400
0.129500
0.129600
0.129700
0.129800
0.129900
0.130000
0.130100
0.130200
0.130300
0.130400
0.130500
0.130600
0.130700
0.130800
0.130900
0.131000
0.131100
0.131200
0.131300
0.131400
0.131500
0.131600
0.131700
0.131800
0.131900
0.132000
0.132100
0.132200
0.132300
0.132400
0.132500
0.132600
0.132700
0.132800
0.132900
0.133000
0.133100
0.133200
0.133300
0.133400
0.133500
0.133600
0.133700
0.133800
0.133900
0.134000
0.134100
0.134200
0.134300
0.134400
0.134500
0.134600
0.134700
0.134800
0.134900
0.135000
0.135100
0.135200
0.135300
0.135400
0.135500
0.135600
0.135700
0.135800
0.135900
0.136000
0.136100
0.136200
0.136300
0.136400
0.136500
0.136600
0.136700
0.136800
0.136900
0.137000
0.137100
0.137200
0.137300
0.137400
0.137500
0.137600
0.137700
0.137800
0.137900
0.138000
0.138100
0.138200
0.138300
0.138400
0.138500
0.138600
0.138700
0.138800
0.138900
0.139000
0.139100
0.139200
0.139300
0.139400
0.139500
0.139600
0.139700
0.139800
0.139900
0.140000
0.140100
0.140200
0.140300
0.140400
0.140500
0.140600
0.140700
0.140800
0.140900
0.141000
0.141100
0.141200
0.141300
0.141400
0.141500
0.141600
0.141700
0.141800
0.141900
0.142000
0.142100
0.142200
0.142300
0.142400
0.142500
0.142600
0.142700
0.142800
0.142900
0.143000
0.143100
0.143200
0.143300
0.143400
0.143500
0.143600
0.143700
0.143800
0.143900
0.144000
0.144100
0.144200
0.144300
0.144400
0.144500
0.144600
0.144700
0.144800
0.144900
0.145000
0.145100
0.145200
0.145300
0.145400
0.145500
0.145600
0.145700
0.145800
0.145900
0.146000
0.146100
0.146200
0.146300
0.146400
0.146500
0.146600
0.146700
0.146800
0.146900
0.147000
0.147100
0.147200
0.147300
0.147400
0.147500
0.147600
0.147700
0.147800
0.147900
0.148000
0.148100
0.148200
0.148300
0.148400
0.148500
0.148600
0.148700
0.148800
0.148900
0.149000
0.149100
0.149200
0.149300
0.149400
0.149500
0.149600
0.149700
0.149800
0.149900
0.150000
0.150100
0.150200
0.150300
0.150400
0.150500
0.150600
0.150700
0.150800
0.150900
0.151000
0.151100
0.151200
0.151300
0.151400
0.151500
0.151600
0.151700
0.151800
0.151900
0.152000
0.152100
0.152200
0.152300
0.152400
0.152500
0.152600
0.152700
0.152800
0.152900
0.153000
0.153100
0.153200
0.153300
0.153400
0.153500
0.153600
0.153700
0.153800
0.153900
0.154000
0.154100
0.154200
0.154300
0.154400
0.154500
0.154600
0.154700
0.154800
0.154900
0.155000
0.155100
0.155200
0.155300
0.155400
0.155500
0.155600
0.155700
0.155800
0.155900
0.156000
0.156100
0.156200
0.156300
0.156400
0.156500
0.156600
0.156700
0.156800
0.156900
0.157000
0.157100
0.157200
0.157300
0.157400
0.157500
0.157600
0.157700
0.157800
0.157900
0.158000
0.158100
0.158200
0.158300
0.158400
0.158500
0.158600
0.158700
0.158800
0.158900
0.159000
0.159100
0.159200
0.159300
0.159400
0.159500
0.159600
0.159700
0.159800
0.159900
0.160000
0.160100
0.160200
0.160300
0.160400
0.160500
0.160600
0.160700
0.160800
0.160900
0.161000
0.161100
0.161200
0.161300
0.161400
0.161500
0.161600
0.161700
0.161800
0.161900
0.162000
0.162100
0.162200
0.162300
0.162400
0.162500
0.162600
0.162700
0.162800
0.162900
0.163000
0.163100
0.163200
0.163300
0.163400
0.163500
0.163600
0.163700
0.163800
0.163900
0.164000
0.164100
0.164200
0.164300
0.164400
0.164500
0.164600
0.164700
0.164800
0.164900
0.165000
0.165100
0.165200
0.165300
0.165400
0.165500
0.165600
0.165700
0.165800
0.165900
0.166000
0.166100
0.166200
0.166300
0.166400
0.166500
0.166600
0.166700
0.166800
0.166900
0.167000
0.167100
0.167200
0.167300
0.167400
0.167500
0.167600
0.167700
0.167800
0.167900
0.168000
0.168100
0.168200
0.168300
0.168400
0.168500
0.168600
0.168700
0.168800
0.168900
0.169000
0.169100
0.169200
0.169300
0.169400
0.169500
0.169600
0.169700
0.169800
0.169900
0.170000
0.170100
0.170200
0.170300
0.170400
0.170500
0.170600
0.170700
0.170800
0.170900
0.171000
0.171100
0.171200
0.171300
0.171400
0.171500
0.171600
0.171700
0.171800
0.171900
0.172000
0.172100
0.172200
0.172300
0.172400
0.172500
0.172600
0.172700
0.172800
0.172900
0.173000
0.173100
0.173200
0.173300
0.173400
0.173500
0.173600
0.173700
0.173800
0.173900
0.174000
0.174100
0.174200
0.174300
0.174400
0.174500
0.174600
0.174700
0.174800
0.174900
0.175000
0.175100
0.175200
0.175300
0.175400
0.175500
0.175600
0.175700
0.175800
0.175900
0.176000
0.176100
0.176200
0.176300
0.176400
0.176500
0.176600
0.176700
0.176800
0.176900
0.177000
0.177100
0.177200
0.177300
0.177400
0.177500
0.177600
0.177700
0.177800
0.177900
0.178000
0.178100
0.178200
0.178300
0.178400
0.178500
0.178600
0.178700
0.178800
0.178900
0.179000
0.179100
0.179200
0.179300
0.179400
0.179500
0.179600
0.179700
0.179800
0.179900
0.180000
0.180100
0.180200
0.180300
0.180400
0.180500
0.180600
0.180700
0.180800
0.180900
0.181000
0.181100
0.181200
0.181300
0.181400
0.181500
0.181600
0.181700
0.181800
0.181900
0.182000
0.182100
0.182200
0.182300
0.182400
0.182500
0.182600
0.182700
0.182800
0.182900
0.183000
0.183100
0.183200
0.183300
0.183400
0.183500
0.183600
0.183700
0.183800
0.183900
0.184000
0.184100
0.184200
0.184300
0.184400
0.184500
0.184600
0.184700
0.184800
0.184900
0.185000
0.185100
0.185200
0.185300
0.185400
0.185500
0.185600
0.185700
0.185800
0.185900
0.186000
0.186100
0.186200
0.186300
0.186400
0.186500
0.186600
0.186700
0.186800
0.186900
0.187000
0.187100
0.187200
0.187300
0.187400
0.187500
0.187600
0.187700
0.187800
0.187900
0.188000
0.188100
0.188200
0.188300
0.188400
0.188500
0.188600
0.188700
0.188800
0.188900
0.189000
0.189100
0.189200
0.189300
0.189400
0.189500
0.189600
0.189700
0.189800
0.189900
0.190000
0.190100
0.190200
0.190300
0.190400
0.190500
0.190600
0.190700
0.190800
0.190900
0.191000
0.191100
0.191200
0.191300
0.191400
0.191500
0.191600
0.191700
0.191800
0.191900
0.192000
0.192100
0.192200
0.192300
0.192400
0.192500
0.192600
0.192700
0.192800
0.192900
0.193000
0.193100
0.193200
0.193300
0.193400
0.193500
0.193600
0.193700
0.193800
0.193900
0.194000
0.194100
0.194200
0.194300
0.194400
0.194500
0.194600
0.194700
0.194800
0.194900
0.195000
0.195100
0.195200
0.195300
0.195400
0.195500
0.195600
0.195700
0.195800
0.195900
0.196000
0.196100
0.196200
0.196300
0.196400
0.196500
0.196600
0.196700
0.196800
0.196900
0.197000
0.197100
0.197200
0.197300
0.197400
0.197500
0.197600
0.197700
0.197800
0.197900
0.198000
0.198100
0.198200
0.198300
0.198400
0.198500
0.198600
0.198700
0.198800
0.198900
0.199000
0.199100
0.199200
0.199300
0.199400
0.199500
0.199600
0.199700
0.199800
0.199900
0.200000
0.200100
0.200200
0.200300
0.200400
0.200500
0.200600
0.200700
0.200800
0.200900
0.201000
0.201100
0.201200
0.201300
0.201400
0.201500
0.201600
0.201700
0.201800
0.201900
0.202000
0.202100
0.202200
0.202300
0.202400
0.202500
0.202600
0.202700
0.202800
0.202900
0.203000
0.203100
0.203200
0.203300
0.203400
0.203500
0.203600
0.203700
0.203800
0.203900
0.204000
0.204100
0.204200
0.204300
0.204400
0.204500
0.204600
0.204700
0.204800
0.204900
0.205000
0.205100
0.205200
0.205300
0.205400
0.205500
0.205600
0.205700
0.205800
0.205900
0.206000
0.206100
0.206200
0.206300
0.206400
0.206500
0.206600
0.206700
0.206800
0.206900
0.207000
0.207100
0.207200
0.207300
0.207400
0.207500
0.207600
0.207700
0.207800
0.207900
0.208000
0.208100
0.208200
0.208300
0.208400
0.208500
0.208600
0.208700
0.208800
0.208900
0.209000
0.209100
0.209200
0.209300
0.209400
0.209500
0.209600
0.209700
0.209800
0.209900
0.210000
0.210100
0.210200
0.210300
0.210400
0.210500
0.210600
0.210700
0.210800
0.210900
0.211000
0.211100
0.211200
0.211300
0.211400
0.211500
0.211600
0.211700
0.211800
0.211900
0.212000
0.212100
0.212200
0.212300
0.212400
0.212500
0.212600
0.212700
0.212800
0.212900
0.213000
0.213100
0.213200
0.213300
0.213400
0.213500
0.213600
0.213700
0.213800
0.213900
0.214000
0.214100
0.214200
0.214300
0.214400
0.214500
0.214600
0.214700
0.214800
0.214900
0.215000
0.215100
0.215200
0.215300
0.215400
0.215500
0.215600
0.215700
0.215800
0.215900
0.216000
0.216100
0.216200
0.216300
0.216400
0.216500
0.216600
0.216700
0.216800
0.216900
0.217000
0.217100
0.217200
0.217300
0.217400
0.217500
0.217600
0.217700
0.217800
0.217900
0.218000
0.218100
0.218200
0.218300
0.218400
0.218500
0.218600
0.218700
0.218800
0.218900
0.219000
0.219100
0.219200
0.219300
0.219400
0.219500
0.219600
0.219700
0.219800
0.219900
0.220000
0.220100
0.220200
0.220300
0.220400
0.220500
0.220600
0.220700
0.220800
0.220900
0.221000
0.221100
0.221200
0.221300
0.221400
0.221500