# vtk DataFile Version 2.0
Generated Volume Mesh
ASCII
DATASET UNSTRUCTURED_GRID
POINTS 2428 float
-1.030302 1.170212 0.306234
0.001288 1.203682 0.035117
0.001114 1.083727 0.031685
-1.031031 1.053855 0.276896
-1.116403 1.138454 0.412696
-1.117216 1.025012 0.373617
-1.116392 1.137968 0.414056
-1.021163 0.986414 0.465153
-1.020371 1.094950 0.516343
0.005474 1.002197 0.667548
0.004867 0.902973 0.600052
-0.000126 0.961339 0.723969
-0.000840 0.866382 0.650602
-1.251138 0.965040 0.735009
-1.252197 0.870087 0.661634
-1.307534 0.982359 0.712839
-1.308591 0.885622 0.641829
-1.309056 0.885953 0.641384
-1.308000 0.982729 0.712342
-1.307459 0.894650 0.818475
-1.308562 0.807067 0.736441
-1.308101 0.807446 0.736031
-1.306998 0.895072 0.818017
-1.250818 0.913961 0.796561
-1.251910 0.824337 0.716761
0.000342 0.910263 0.785526
-0.000422 0.820634 0.705736
0.006787 0.862408 0.836061
0.005988 0.777766 0.750989
-1.016948 0.723663 0.965377
-1.018200 0.653434 0.868075
-1.024280 0.529515 1.078505
-1.025644 0.479533 0.969411
0.009956 0.277093 1.150445
0.008896 0.252433 1.033001
0.009786 0.210035 1.162460
0.008782 0.192296 1.043771
-1.025330 -0.048505 1.181296
-1.026475 -0.039873 1.061607
-1.026194 -0.268340 1.143831
-1.027277 -0.236882 1.028033
0.007131 -0.513550 1.039165
0.006336 -0.457714 0.932938
0.006919 -0.572924 1.005723
0.006100 -0.510992 0.902925
-1.027970 -0.784858 0.853242
-1.028874 -0.702017 0.766412
-1.115101 -0.861407 0.773790
-1.115986 -0.771513 0.694294
-1.115103 -0.862351 0.772697
-1.020770 -0.832648 0.614971
-1.019999 -0.930675 0.684205
0.005588 -1.018706 0.526023
0.004991 -0.911050 0.472985
0.000158 -1.047707 0.462588
-0.000623 -0.937026 0.416165
-1.250881 -1.065589 0.454325
-1.252397 -0.954928 0.407888
-1.307529 -1.055209 0.479969
-1.309001 -0.945727 0.430818
-1.309471 -0.945507 0.431323
-1.308000 -1.054962 0.480533
-1.306331 -1.103877 0.351573
-1.307985 -0.989317 0.315818
-1.307529 -0.989143 0.316353
-1.305875 -1.103684 0.352169
-1.249918 -1.093957 0.379533
-1.251534 -0.980335 0.340902
0.000830 -1.076035 0.387794
-0.000024 -0.962453 0.349175
0.007405 -1.096408 0.321150
0.006607 -0.980632 0.289532
-1.015273 -1.141527 0.128655
-1.016624 -1.022215 0.115792
-1.019861 -1.143731 -0.096119
-1.021661 -1.024194 -0.085536
0.018263 -1.077908 -0.335335
0.016142 -0.963663 -0.298587
0.019128 -1.055147 -0.399551
0.016935 -0.943259 -0.356155
-1.012648 -0.948191 -0.650892
-1.015500 -0.848652 -0.583865
-1.011623 -0.806337 -0.822989
-1.014584 -0.721543 -0.738073
0.022149 -0.584280 -0.967960
0.019297 -0.520452 -0.866331
0.021623 -0.525594 -1.002507
0.018715 -0.467898 -0.897272
-1.016632 -0.308690 -1.119839
-1.019624 -0.276386 -1.004268
-0.000862 0.190652 -1.136208
0.006302 0.121341 -1.143079
0.004569 0.112815 -1.023360
-0.002592 0.174976 -1.017243
-1.251763 0.172305 -1.161095
-1.254079 0.156631 -1.042119
-1.307548 0.143283 -1.165669
-1.309914 0.130548 -1.046344
-1.310367 0.129987 -1.046413
-1.308000 0.142658 -1.165744
-1.310549 0.278688 -1.142986
-1.312653 0.251824 -1.026028
-1.312179 0.251288 -1.026142
-1.310074 0.278089 -1.143115
-1.253243 0.251195 -1.147895
-1.255405 0.227288 -1.030297
-0.002196 0.269536 -1.123017
-0.003793 0.245647 -1.005431
0.002718 0.337533 -1.107010
0.001192 0.306608 -0.991039
-1.024038 0.506667 -1.061478
-1.025533 0.458323 -0.951641
-1.034019 0.702488 -0.951448
-1.035183 0.633762 -0.853088
-0.001855 0.902103 -0.767716
-0.002189 0.813256 -0.687037
-0.002160 0.946452 -0.715889
-0.002464 0.853013 -0.640551
-1.036530 1.090415 -0.494879
-1.036945 0.982554 -0.442284
-1.035640 1.168326 -0.285880
-1.036032 1.052341 -0.255087
0.000572 1.203635 -0.033047
0.000515 1.083685 -0.029381
-1.016558 1.145810 -0.360238
0.019221 1.198637 -0.110675
0.019203 1.079210 -0.098948
-1.016963 1.032156 -0.321684
-1.016798 1.121967 -0.424076
-1.017267 1.010800 -0.378852
0.016986 0.993091 -0.653773
0.016703 0.894816 -0.584910
0.017978 0.848043 -0.823268
0.017566 0.764851 -0.736782
-1.013840 0.637483 -0.993474
-1.015111 0.575502 -0.890697
-1.010775 0.577666 -1.027086
-1.012218 0.521905 -0.920825
0.015541 0.413028 -1.083906
0.014115 0.374304 -0.970335
0.085606 0.231443 -1.128899
0.083973 0.211651 -1.010535
0.021754 0.042894 -1.145766
0.019873 0.042527 -1.025773
-0.998318 -0.166439 -1.149606
-1.000874 -0.149000 -1.030877
-1.029144 -0.179732 -1.026503
-1.026404 -0.200730 -1.144679
-1.001844 -0.208304 -1.020363
-0.999001 -0.232756 -1.137852
0.040178 -0.455923 -1.037176
0.037318 -0.405463 -0.928296
0.042047 -0.648207 -0.924177
0.039124 -0.577683 -0.827082
-0.992439 -0.859071 -0.765977
-0.995395 -0.768744 -0.686954
-0.992755 -0.902411 -0.713391
-0.995675 -0.807600 -0.639812
0.039434 -1.024404 -0.470578
0.037123 -0.915713 -0.419714
0.036594 -1.098920 -0.260354
0.034571 -0.982465 -0.231384
-1.001554 -1.147702 -0.018347
-1.003255 -1.027723 -0.015847
-1.000194 -1.147105 0.050282
-1.001704 -1.027190 0.045621
0.022125 -1.114405 0.244584
0.021208 -0.996742 0.220996
0.087630 -1.061760 0.425930
0.086856 -0.949547 0.383384
0.018993 -0.981391 0.595502
0.018437 -0.877613 0.535229
-1.006118 -0.882983 0.746910
-1.006910 -0.789912 0.671132
-1.035945 -0.770573 0.694461
-1.035088 -0.861397 0.772935
-1.009426 -0.750540 0.716676
-1.008509 -0.839055 0.797718
0.026062 -0.637984 0.963323
0.025267 -0.569279 0.864927
0.026803 -0.443669 1.072788
0.025965 -0.395133 0.963035
-1.006446 -0.192862 1.161461
-1.007569 -0.169256 1.043795
-1.006192 -0.125723 1.172914
-1.007331 -0.109032 1.054076
0.028992 0.132884 1.171177
0.027999 0.123179 1.051573
0.029483 0.352392 1.131783
0.028384 0.319863 1.016278
-1.004999 0.598866 1.043620
-1.006365 0.541644 0.938137
-1.002782 0.658198 1.009114
-1.004092 0.594806 0.907227
0.021206 0.804698 0.889539
0.020331 0.726075 0.798885
0.087260 0.936271 0.754467
0.086542 0.843917 0.677842
0.018966 1.044225 0.600829
0.018384 0.940612 0.540297
-1.007116 1.126062 0.443858
-1.007861 1.014278 0.400194
-1.037165 1.024964 0.372071
-1.036377 1.137995 0.412462
-1.010914 1.034538 0.343449
-1.010098 1.148652 0.380571
0.021494 1.198829 0.112357
0.021231 1.079382 0.100860
0.107423 1.084067 0.000008
0.107505 1.204088 0.000009
0.027433 1.084136 0.000870
0.027531 1.204135 0.000774
-1.109143 -0.182619 -1.027862
-1.106444 -0.203693 -1.145975
-1.106479 -0.202270 -1.146227
-1.014333 -0.088540 -1.158612
-1.016667 -0.079301 -1.038977
-1.109175 -0.181346 -1.028088
-0.514729 1.193701 0.171548
-0.515272 1.074841 0.155096
-1.091982 1.159982 0.345422
-1.094819 1.044051 0.314497
-1.090649 1.001531 0.432785
-1.088047 1.110944 0.482001
-0.507658 1.051543 0.593276
-0.508250 0.947342 0.533761
0.034559 0.980522 0.698067
0.033875 0.883370 0.627622
-0.834088 0.963335 0.731306
-0.417105 0.962042 0.727592
-0.417987 0.867088 0.654218
-0.835106 0.868387 0.657932
-0.416683 0.910972 0.789149
-0.833739 0.912264 0.792859
-0.834793 0.822635 0.713060
-0.417609 0.821334 0.709350
0.035424 0.888612 0.808846
0.034625 0.801452 0.726360
-0.505248 0.794893 0.903331
-0.506238 0.717229 0.811854
-1.088083 0.567717 1.060943
-1.111635 0.632098 1.026274
-1.083813 0.692790 0.987820
-1.087077 0.624082 0.889387
-1.112903 0.573069 0.921771
-1.091575 0.516100 0.952632
-0.507291 0.405618 1.120978
-0.508528 0.368086 1.007008
0.036484 0.243557 1.156731
0.035445 0.222353 1.038604
-0.508007 0.081098 1.178777
-0.509033 0.076527 1.058873
-1.101793 -0.207969 1.159242
-1.101774 -0.110619 1.175838
-1.098093 -0.087329 1.057780
-1.106987 -0.174444 1.043720
-0.509859 -0.393740 1.097817
-0.510737 -0.349821 0.986151
0.033636 -0.543472 1.022683
0.032821 -0.484560 0.918114
-0.510864 -0.682610 0.935478
-0.511783 -0.609812 0.840080
-1.090033 -0.813588 0.825490
-1.093029 -0.729552 0.739826
-1.089967 -0.811582 0.644532
-1.087387 -0.908338 0.715496
-0.507628 -0.977959 0.606094
-0.508169 -0.874810 0.544758
0.034757 -1.034568 0.492139
0.034056 -0.925366 0.442362
-0.833809 -1.058828 0.457152
-0.416809 -1.052579 0.459999
-0.418058 -0.941877 0.413573
-0.835278 -0.948170 0.410723
-0.415915 -1.080918 0.385204
-0.832863 -1.087198 0.382364
-0.834430 -0.973573 0.343734
-0.417254 -0.967304 0.346565
0.035952 -1.085631 0.357513
0.035118 -0.970872 0.322382
-0.504306 -1.122043 0.226224
-0.505265 -1.004123 0.203939
-1.084204 -1.147532 -0.055030
-1.108656 -1.149321 0.017801
-1.081699 -1.145889 0.089922
-1.085094 -1.026354 0.078921
-1.110202 -1.029301 0.018245
-1.088090 -1.027867 -0.046281
-0.500982 -1.117795 -0.217512
-0.502984 -1.000189 -0.193689
0.045317 -1.066666 -0.367127
0.043148 -0.953546 -0.327040
-0.496864 -1.007631 -0.528471
-0.499353 -0.901268 -0.472922
-1.087661 -0.850218 -0.779508
-1.088467 -0.913035 -0.703308
-1.086657 -0.822168 -0.624308
-1.094775 -0.766693 -0.693030
-0.494711 -0.700239 -0.900787
-0.497538 -0.625464 -0.806934
0.048504 -0.554670 -0.985226
0.045623 -0.493880 -0.881748
-0.497291 -0.418941 -1.067831
-0.500374 -0.373633 -0.956725
0.034538 0.159325 -1.139365
0.032786 0.147259 -1.019965
-0.834703 0.178573 -1.152154
-0.417753 0.184725 -1.143708
-0.419809 0.169047 -1.024737
-0.836968 0.162896 -1.033190
-0.419161 0.263617 -1.130524
-0.836182 0.257460 -1.138968
-0.838292 0.233554 -1.021364
-0.421070 0.239714 -1.012903
0.032172 0.301340 -1.115636
0.030607 0.273889 -0.998809
-0.511067 0.422354 -1.087710
-0.512619 0.382630 -0.974479
-1.097319 0.667354 -0.975845
-1.120013 0.604623 -1.013940
-1.091349 0.541005 -1.046633
-1.094798 0.490919 -0.937534
-1.121287 0.544437 -0.910094
-1.100673 0.600109 -0.876482
-0.518438 0.807176 -0.864068
-0.519063 0.727891 -0.773999
0.024605 0.924679 -0.741987
0.024279 0.833487 -0.663949
-0.519895 1.023972 -0.610107
-0.520244 0.922711 -0.545722
-1.111764 1.151165 -0.345139
-1.112506 1.116682 -0.437695
-1.108193 1.002890 -0.398639
-1.116339 1.034403 -0.316139
-0.518013 1.192873 -0.159754
-0.518124 1.074138 -0.142394
-0.498612 1.179036 -0.236099
-0.498768 1.061751 -0.210788
-1.043283 1.134485 -0.392257
-1.043719 1.022024 -0.350350
-0.499785 1.063215 -0.543373
-0.500247 0.957863 -0.485983
0.093516 0.891634 -0.778676
0.093412 0.955828 -0.703672
0.088330 0.866521 -0.623127
0.097257 0.809658 -0.690587
[...]
POINT_DATA 2428
SCALARS var1 float
LOOKUP_TABLE default
0.000000
0.000100
0.000200
0.000300
0.000400
0.000500
0.000600
0.000700
0.000800
0.000900
0.001000
0.001100
0.001200
0.001300
0.001400
0.001500
0.001600
0.001700
0.001800
0.001900
0.002000
0.002100
0.002200
0.002300
0.002400
0.002500
0.002600
0.002700
0.002800
0.002900
0.003000
0.003100
0.003200
0.003300
0.003400
0.003500
0.003600
0.003700
0.003800
0.003900
0.004000
0.004100
0.004200
0.004300
0.004400
0.004500
0.004600
0.004700
0.004800
0.004900
0.005000
0.005100
0.005200
0.005300
0.005400
0.005500
0.005600
0.005700
0.005800
0.005900
0.006000
0.006100
0.006200
0.006300
0.006400
0.006500
0.006600
0.006700
0.006800
0.006900
0.007000
0.007100
0.007200
0.007300
0.007400
0.007500
0.007600
0.007700
0.007800
0.007900
0.008000
0.008100
0.008200
0.008300
0.008400
0.008500
0.008600
0.008700
0.008800
0.008900
0.009000
0.009100
0.009200
0.009300
0.009400
0.009500
0.009600
0.009700
0.009800
0.009900
0.010000
0.010100
0.010200
0.010300
0.010400
0.010500
0.010600
0.010700
0.010800
0.010900
0.011000
0.011100
0.011200
0.011300
0.011400
0.011500
0.011600
0.011700
0.011800
0.011900
0.012000
0.012100
0.012200
0.012300
0.012400
0.012500
0.012600
0.012700
0.012800
0.012900
0.013000
0.013100
0.013200
0.013300
0.013400
0.013500
0.013600
0.013700
0.013800
0.013900
0.014000
0.014100
0.014200
0.014300
0.014400
0.014500
0.014600
0.014700
0.014800
0.014900
0.015000
0.015100
0.015200
0.015300
0.015400
0.015500
0.015600
0.015700
0.015800
0.015900
0.016000
0.016100
0.016200
0.016300
0.016400
0.016500
0.016600
0.016700
0.016800
0.016900
0.017000
0.017100
0.017200
0.017300
0.017400
0.017500
0.017600
0.017700
0.017800
0.017900
0.018000
0.018100
0.018200
0.018300
0.018400
0.018500
0.018600
0.018700
0.018800
0.018900
0.019000
0.019100
0.019200
0.019300
0.019400
0.019500
0.019600
0.019700
0.019800
0.019900
0.020000
0.020100
0.020200
0.020300
0.020400
0.020500
0.020600
0.020700
0.020800
0.020900
0.021000
0.021100
0.021200
0.021300
0.021400
0.021500
0.021600
0.021700
0.021800
0.021900
0.022000
0.022100
0.022200
0.022300
0.022400
0.022500
0.022600
0.022700
0.022800
0.022900
0.023000
0.023100
0.023200
0.023300
0.023400
0.023500
0.023600
0.023700
0.023800
0.023900
0.024000
0.024100
0.024200
0.024300
0.024400
0.024500
0.024600
0.024700
0.024800
0.024900
0.025000
0.025100
0.025200
0.025300
0.025400
0.025500
0.025600
0.025700
0.025800
0.025900
0.026000
0.026100
0.026200
0.026300
0.026400
0.026500
0.026600
0.026700
0.026800
0.026900
0.027000
0.027100
0.027200
0.027300
0.027400
0.027500
0.027600
0.027700
0.027800
0.027900
0.028000
0.028100
0.028200
0.028300
0.028400
0.028500
0.028600
0.028700
0.028800
0.028900
0.029000
0.029100
0.029200
0.029300
0.029400
0.029500
0.029600
0.029700
0.029800
0.029900
0.030000
0.030100
0.030200
0.030300
0.030400
0.030500
0.030600
0.030700
0.030800
0.030900
0.031000
0.031100
0.031200
0.031300
0.031400
0.031500
0.031600
0.031700
0.031800
0.031900
0.032000
0.032100
0.032200
0.032300
0.032400
0.032500
0.032600
0.032700
0.032800
0.032900
0.033000
0.033100
0.033200
0.033300
0.033400
0.033500
0.033600
0.033700
0.033800
0.033900
0.034000
0.034100
0.034200
0.034300
0.034400
0.034500
0.034600
0.034700
0.034800
0.034900
0.035000
0.035100
0.035200
0.035300
0.035400
0.035500
0.035600
0.035700
0.035800
0.035900
0.036000
0.036100
0.036200
0.036300
0.036400
0.036500
0.036600
0.036700
0.036800
0.036900
0.037000
0.037100
0.037200
0.037300
0.037400
0.037500
0.037600
0.037700
0.037800
0.037900
0.038000
0.038100
0.038200
0.038300
0.038400
0.038500
0.038600
0.038700
0.038800
0.038900
0.039000
0.039100
0.039200
0.039300
0.039400
0.039500
0.039600
0.039700
0.039800
0.039900
0.040000
0.040100
0.040200
0.040300
0.040400
0.040500
0.040600
0.040700
0.040800
0.040900
0.041000
0.041100
0.041200
0.041300
0.041400
0.041500
0.041600
0.041700
0.041800
0.041900
0.042000
0.042100
0.042200
0.042300
0.042400
0.042500
0.042600
0.042700
0.042800
0.042900
0.043000
0.043100
0.043200
0.043300
0.043400
0.043500
0.043600
0.043700
0.043800
0.043900
0.044000
0.044100
0.044200
0.044300
0.044400
0.044500
0.044600
0.044700
0.044800
0.044900
0.045000
0.045100
0.045200
0.045300
0.045400
0.045500
0.045600
0.045700
0.045800
0.045900
0.046000
0.046100
0.046200
0.046300
0.046400
0.046500
0.046600
0.046700
0.046800
0.046900
0.047000
0.047100
0.047200
0.047300
0.047400
0.047500
0.047600
0.047700
0.047800
0.047900
0.048000
0.048100
0.048200
0.048300
0.048400
0.048500
0.048600
0.048700
0.048800
0.048900
0.049000
0.049100
0.049200
0.049300
0.049400
0.049500
0.049600
0.049700
0.049800
0.049900
0.050000
0.050100
0.050200
0.050300
0.050400
0.050500
0.050600
0.050700
0.050800
0.050900
0.051000
0.051100
0.051200
0.051300
0.051400
0.051500
0.051600
0.051700
0.051800
0.051900
0.052000
0.052100
0.052200
0.052300
0.052400
0.052500
0.052600
0.052700
0.052800
0.052900
0.053000
0.053100
0.053200
0.053300
0.053400
0.053500
0.053600
0.053700
0.053800
0.053900
0.054000
0.054100
0.054200
0.054300
0.054400
0.054500
0.054600
0.054700
0.054800
0.054900
0.055000
0.055100
0.055200
0.055300
0.055400
0.055500
0.055600
0.055700
0.055800
0.055900
0.056000
0.056100
0.056200
0.056300
0.056400
0.056500
0.056600
0.056700
0.056800
0.056900
0.057000
0.057100
0.057200
0.057300
0.057400
0.057500
0.057600
0.057700
0.057800
0.057900
0.058000
0.058100
0.058200
0.058300
0.058400
0.058500
0.058600
0.058700
0.058800
0.058900
0.059000
0.059100
0.059200
0.059300
0.059400
0.059500
0.059600
0.059700
0.059800
0.059900
0.060000
0.060100
0.060200
0.060300
0.060400
0.060500
0.060600
0.060700
0.060800
0.060900
0.061000
0.061100
0.061200
0.061300
0.061400
0.061500
0.061600
0.061700
0.061800
0.061900
0.062000
0.062100
0.062200
0.062300
0.062400
0.062500
0.062600
0.062700
0.062800
0.062900
0.063000
0.063100
0.063200
0.063300
0.063400
0.063500
0.063600
0.063700
0.063800
0.063900
0.064000
0.064100
0.064200
0.064300
0.064400
0.064500
0.064600
0.064700
0.064800
0.064900
0.065000
0.065100
0.065200
0.065300
0.065400
0.065500
0.065600
0.065700
0.065800
0.065900
0.066000
0.066100
0.066200
0.066300
0.066400
0.066500
0.066600
0.066700
0.066800
0.066900
0.067000
0.067100
0.067200
0.067300
0.067400
0.067500
0.067600
0.067700
0.067800
0.067900
0.068000
0.068100
0.068200
0.068300
0.068400
0.068500
0.068600
0.068700
0.068800
0.068900
0.069000
0.069100
0.069200
0.069300
0.069400
0.069500
0.069600
0.069700
0.069800
0.069900
0.070000
0.070100
0.070200
0.070300
0.070400
0.070500
0.070600
0.070700
0.070800
0.070900
0.071000
0.071100
0.071200
0.071300
0.071400
0.071500
0.071600
0.071700
0.071800
0.071900
0.072000
0.072100
0.072200
0.072300
0.072400
0.072500
0.072600
0.072700
0.072800
0.072900
0.073000
0.073100
0.073200
0.073300
0.073400
0.073500
0.073600
0.073700
0.073800
0.073900
0.074000
0.074100
0.074200
0.074300
0.074400
0.074500
0.074600
0.074700
0.074800
0.074900
0.075000
0.075100
0.075200
0.075300
0.075400
0.075500
0.075600
0.075700
0.075800
0.075900
0.076000
0.076100
0.076200
0.076300
0.076400
0.076500
0.076600
0.076700
0.076800
0.076900
0.077000
0.077100
0.077200
0.077300
0.077400
0.077500
0.077600
0.077700
0.077800
0.077900
0.078000
0.078100
0.078200
0.078300
0.078400
0.078500
0.078600
0.078700
0.078800
0.078900
0.079000
0.079100
0.079200
0.079300
0.079400
0.079500
0.079600
0.079700
0.079800
0.079900
0.080000
0.080100
0.080200
0.080300
0.080400
0.080500
0.080600
0.080700
0.080800
0.080900
0.081000
0.081100
0.081200
0.081300
0.081400
0.081500
0.081600
0.081700
0.081800
0.081900
0.082000
0.082100
0.082200
0.082300
0.082400
0.082500
0.082600
0.082700
0.082800
0.082900
0.083000
0.083100
0.083200
0.083300
0.083400
0.083500
0.083600
0.083700
0.083800
0.083900
0.084000
0.084100
0.084200
0.084300
0.084400
0.084500
0.084600
0.084700
0.084800
0.084900
0.085000
0.085100
0.085200
0.085300
0.085400
0.085500
0.085600
0.085700
0.085800
0.085900
0.086000
0.086100
0.086200
0.086300
0.086400
0.086500
0.086600
0.086700
0.086800
0.086900
0.087000
0.087100
0.087200
0.087300
0.087400
0.087500
0.087600
0.087700
0.087800
0.087900
0.088000
0.088100
0.088200
0.088300
0.088400
0.088500
0.088600
0.088700
0.088800
0.088900
0.089000
0.089100
0.089200
0.089300
0.089400
0.089500
0.089600
0.089700
0.089800
0.089900
0.090000
0.090100
0.090200
0.090300
0.090400
0.090500
0.090600
0.090700
0.090800
0.090900
0.091000
0.091100
0.091200
0.091300
0.091400
0.091500
0.091600
0.091700
0.091800
0.091900
0.092000
0.092100
0.092200
0.092300
0.092400
0.092500
0.092600
0.092700
0.092800
0.092900
0.093000
0.093100
0.093200
0.093300
0.093400
0.093500
0.093600
0.093700
0.093800
0.093900
0.094000
0.094100
0.094200
0.094300
0.094400
0.094500
0.094600
0.094700
0.094800
0.094900
0.095000
0.095100
0.095200
0.095300
0.095400
0.095500
0.095600
0.095700
0.095800
0.095900
0.096000
0.096100
0.096200
0.096300
0.096400
0.096500
0.096600
0.096700
0.096800
0.096900
0.097000
0.097100
0.097200
0.097300
0.097400
0.097500
0.097600
0.097700
0.097800
0.097900
0.098000
0.098100
0.098200
0.098300
0.098400
0.098500
0.098600
0.098700
0.098800
0.098900
0.099000
0.099100
0.099200
0.099300
0.099400
0.099500
0.099600
0.099700
0.099800
0.099900
0.100000
0.100100
0.100200
0.100300
0.100400
0.100500
0.100600
0.100700
0.100800
0.100900
0.101000
0.101100
0.101200
0.101300
0.101400
0.101500
0.101600
0.101700
0.101800
0.101900
0.102000
0.102100
0.102200
0.102300
0.102400
0.102500
0.102600
0.102700
0.102800
0.102900
0.103000
0.103100
0.103200
0.103300
0.103400
0.103500
0.103600
0.103700
0.103800
0.103900
0.104000
0.104100
0.104200
0.104300
0.104400
0.104500
0.104600
0.104700
0.104800
0.104900
0.105000
0.105100
0.105200
0.105300
0.105400
0.105500
0.105600
0.105700
0.105800
0.105900
0.106000
0.106100
0.106200
0.106300
0.106400
0.106500
0.106600
0.106700
0.106800
0.106900
0.107000
0.107100
0.107200
0.107300
0.107400
0.107500
0.107600
0.107700
0.107800
0.107900
0.108000
0.108100
0.108200
0.108300
0.108400
0.108500
0.108600
0.108700
0.108800
0.108900
0.109000
0.109100
0.109200
0.109300
0.109400
0.109500
0.109600
0.109700
0.109800
0.109900
0.110000
0.110100
0.110200
0.110300
0.110400
0.110500
0.110600
0.110700
0.110800
0.110900
0.111000
0.111100
0.111200
0.111300
0.111400
0.111500
0.111600
0.111700
0.111800
0.111900
0.112000
0.112100
0.112200
0.112300
0.112400
0.112500
0.112600
0.112700
0.112800
0.112900
0.113000
0.113100
0.113200
0.113300
0.113400
0.113500
0.113600
0.113700
0.113800
0.113900
0.114000
0.114100
0.114200
0.114300
0.114400
0.114500
0.114600
0.114700
0.114800
0.114900
0.115000
0.115100
0.115200
0.115300
0.115400
0.115500
0.115600
0.115700
0.115800
0.115900
0.116000
0.116100
0.116200
0.116300
0.116400
0.116500
0.116600
0.116700
0.116800
0.116900
0.117000
0.117100
0.117200
0.117300
0.117400
0.117500
0.117600
0.117700
0.117800
0.117900
0.118000
0.118100
0.118200
0.118300
0.118400
0.118500
0.118600
0.118700
0.118800
0.118900
0.119000
0.119100
0.119200
0.119300
0.119400
0.119500
0.119600
0.119700
0.119800
0.119900
0.120000
0.120100
0.120200
0.120300
0.120400
0.120500
0.120600
0.120700
0.120800
0.120900
0.121000
0.121100
0.121200
0.121300
0.121400
0.121500
0.121600
0.121700
0.121800
0.121900
0.122000
0.122100
0.122200
0.122300
0.122400
0.122500
0.122600
0.122700
0.122800
0.122900
0.123000
0.123100
0.123200
0.123300
0.123400
0.123500
0.123600
0.123700
0.123800
0.123900
0.124000
0.124100
0.124200
0.124300
0.124400
0.124500
0.124600
0.124700
0.124800
0.124900
0.125000
0.125100
0.125200
0.125300
0.125400
0.125500
0.125600
0.125700
0.125800
0.125900
0.126000
0.126100
0.126200
0.126300
0.126400
0.126500
0.126600
0.126700
0.126800
0.126900
0.127000
0.127100
0.127200
0.127300
0.127400
0.127500
0.127600
0.127700
0.127800
0.127900
0.128000
0.128100
0.128200
0.128300
0.128400
0.128500
0.128600
0.128700
0.128800
0.128900
0.129000
0.129100
0.129200
0.129300
0.129400
0.129500
0.129600
0.129700
0.129800
0.129900
0.130000
0.130100
0.130200
0.130300
0.130400
0.130500
0.130600
0.130700
0.130800
0.130900
0.131000
0.131100
0.131200
0.131300
0.131400
0.131500
0.131600
0.131700
0.131800
0.131900
0.132000
0.132100
0.132200
0.132300
0.132400
0.132500
0.132600
0.132700
0.132800
0.132900
0.133000
0.133100
0.133200
0.133300
0.133400
0.133500
0.133600
0.133700
0.133800
0.133900
0.134000
0.134100
0.134200
0.134300
0.134400
0.134500
0.134600
0.134700
0.134800
0.134900
0.135000
0.135100
0.135200
0.135300
0.135400
0.135500
0.135600
0.135700
0.135800
0.135900
0.136000
0.136100
0.136200
0.136300
0.136400
0.136500
0.136600
0.136700
0.136800
0.136900
0.137000
0.137100
0.137200
0.137300
0.137400
0.137500
0.137600
0.137700
0.137800
0.137900
0.138000
0.138100
0.138200
0.138300
0.138400
0.138500
0.138600
0.138700
0.138800
0.138900
0.139000
0.139100
0.139200
0.139300
0.139400
0.139500
0.139600
0.139700
0.139800
0.139900
0.140000
0.140100
0.140200
0.140300
0.140400
0.140500
0.140600
0.140700
0.140800
0.140900
0.141000
0.141100
0.141200
0.141300
0.141400
0.141500
0.141600
0.141700
0.141800
0.141900
0.142000
0.142100
0.142200
0.142300
0.142400
0.142500
0.142600
0.142700
0.142800
0.142900
0.143000
0.143100
0.143200
0.143300
0.143400
0.143500
0.143600
0.143700
0.143800
0.143900
0.144000
0.144100
0.144200
0.144300
0.144400
0.144500
0.144600
0.144700
0.144800
0.144900
0.145000
0.145100
0.145200
0.145300
0.145400
0.145500
0.145600
0.145700
0.145800
0.145900
0.146000
0.146100
0.146200
0.146300
0.146400
0.146500
0.146600
0.146700
0.146800
0.146900
0.147000
0.147100
0.147200
0.147300
0.147400
0.147500
0.147600
0.147700
0.147800
0.147900
0.148000
0.148100
0.148200
0.148300
0.148400
0.148500
0.148600
0.148700
0.148800
0.148900
0.149000
0.149100
0.149200
0.149300
0.149400
0.149500
0.149600
0.149700
0.149800
0.149900
0.150000
0.150100
0.150200
0.150300
0.150400
0.150500
0.150600
0.150700
0.150800
0.150900
0.151000
0.151100
0.151200
0.151300
0.151400
0.151500
0.151600
0.151700
0.151800
0.151900
0.152000
0.152100
0.152200
0.152300
0.152400
0.152500
0.152600
0.152700
0.152800
0.152900
0.153000
0.153100
0.153200
0.153300
0.153400
0.153500
0.153600
0.153700
0.153800
0.153900
0.154000
0.154100
0.154200
0.154300
0.154400
0.154500
0.154600
0.154700
0.154800
0.154900
0.155000
0.155100
0.155200
0.155300
0.155400
0.155500
0.155600
0.155700
0.155800
0.155900
0.156000
0.156100
0.156200
0.156300
0.156400
0.156500
0.156600
0.156700
0.156800
0.156900
0.157000
0.157100
0.157200
0.157300
0.157400
0.157500
0.157600
0.157700
0.157800
0.157900
0.158000
0.158100
0.158200
0.158300
0.158400
0.158500
0.158600
0.158700
0.158800
0.158900
0.159000
0.159100
0.159200
0.159300
0.159400
0.159500
0.159600
0.159700
0.159800
0.159900
0.160000
0.160100
0.160200
0.160300
0.160400
0.160500
0.160600
0.160700
0.160800
0.160900
0.161000
0.161100
0.161200
0.161300
0.161400
0.161500
0.161600
0.161700
0.161800
0.161900
0.162000
0.162100
0.162200
0.162300
0.162400
0.162500
0.162600
0.162700
0.162800
0.162900
0.163000
0.163100
0.163200
0.163300
0.163400
0.163500
0.163600
0.163700
0.163800
0.163900
0.164000
0.164100
0.164200
0.164300
0.164400
0.164500
0.164600
0.164700
0.164800
0.164900
0.165000
0.165100
0.165200
0.165300
0.165400
0.165500
0.165600
0.165700
0.165800
0.165900
0.166000
0.166100
0.166200
0.166300
0.166400
0.166500
0.166600
0.166700
0.166800
0.166900
0.167000
0.167100
0.167200
0.167300
0.167400
0.167500
0.167600
0.167700
0.167800
0.167900
0.168000
0.168100
0.168200
0.168300
0.168400
0.168500
0.168600
0.168700
0.168800
0.168900
0.169000
0.169100
0.169200
0.169300
0.169400
0.169500
0.169600
0.169700
0.169800
0.169900
0.170000
0.170100
0.170200
0.170300
0.170400
0.170500
0.170600
0.170700
0.170800
0.170900
0.171000
0.171100
0.171200
0.171300
0.171400
0.171500
0.171600
0.171700
0.171800
0.171900
0.172000
0.172100
0.172200
0.172300
0.172400
0.172500
0.172600
0.172700
0.172800
0.172900
0.173000
0.173100
0.173200
0.173300
0.173400
0.173500
0.173600
0.173700
0.173800
0.173900
0.174000
0.174100
0.174200
0.174300
0.174400
0.174500
0.174600
0.174700
0.174800
0.174900
0.175000
0.175100
0.175200
0.175300
0.175400
0.175500
0.175600
0.175700
0.175800
0.175900
0.176000
0.176100
0.176200
0.176300
0.176400
0.176500
0.176600
0.176700
0.176800
0.176900
0.177000
0.177100
0.177200
0.177300
0.177400
0.177500
0.177600
0.177700
0.177800
0.177900
0.178000
0.178100
0.178200
0.178300
0.178400
0.178500
0.178600
0.178700
0.178800
0.178900
0.179000
0.179100
0.179200
0.179300
0.179400
0.179500
0.179600
0.179700
0.179800
0.179900
0.180000
0.180100
0.180200
0.180300
0.180400
0.180500
0.180600
0.180700
0.180800
0.180900
0.181000
0.181100
0.181200
0.181300
0.181400
0.181500
0.181600
0.181700
0.181800
0.181900
0.182000
0.182100
0.182200
0.182300
0.182400
0.182500
0.182600
0.182700
0.182800
0.182900
0.183000
0.183100
0.183200
0.183300
0.183400
0.183500
0.183600
0.183700
0.183800
0.183900
0.184000
0.184100
0.184200
0.184300
0.184400
0.184500
0.184600
0.184700
0.184800
0.184900
0.185000
0.185100
0.185200
0.185300
0.185400
0.185500
0.185600
0.185700
0.185800
0.185900
0.186000
0.186100
0.186200
0.186300
0.186400
0.186500
0.186600
0.186700
0.186800
0.186900
0.187000
0.187100
0.187200
0.187300
0.187400
0.187500
0.187600
0.187700
0.187800
0.187900
0.188000
0.188100
0.188200
0.188300
0.188400
0.188500
0.188600
0.188700
0.188800
0.188900
0.189000
0.189100
0.189200
0.189300
0.189400
0.189500
0.189600
0.189700
0.189800
0.189900
0.190000
0.190100
0.190200
0.190300
0.190400
0.190500
0.190600
0.190700
0.190800
0.190900
0.191000
0.191100
0.191200
0.191300
0.191400
0.191500
0.191600
0.191700
0.191800
0.191900
0.192000
0.192100
0.192200
0.192300
0.192400
0.192500
0.192600
0.192700
0.192800
0.192900
0.193000
0.193100
0.193200
0.193300
0.193400
0.193500
0.193600
0.193700
0.193800
0.193900
0.194000
0.194100
0.194200
0.194300
0.194400
0.194500
0.194600
0.194700
0.194800
0.194900
0.195000
0.195100
0.195200
0.195300
0.195400
0.195500
0.195600
0.195700
0.195800
0.195900
0.196000
0.196100
0.196200
0.196300
0.196400
0.196500
0.196600
0.196700
0.196800
0.196900
0.197000
0.197100
0.197200
0.197300
0.197400
0.197500
0.197600
0.197700
0.197800
0.197900
0.198000
0.198100
0.198200
0.198300
0.198400
0.198500
0.198600
0.198700
0.198800
0.198900
0.199000
0.199100
0.199200
0.199300
0.199400
0.199500
0.199600
0.199700
0.199800
0.199900
0.200000
0.200100
0.200200
0.200300
0.200400
0.200500
0.200600
0.200700
0.200800
0.200900
0.201000
0.201100
0.201200
0.201300
0.201400
0.201500
0.201600
0.201700
0.201800
0.201900
0.202000
0.202100
0.202200
0.202300
0.202400
0.202500
0.202600
0.202700
0.202800
0.202900
0.203000
0.203100
0.203200
0.203300
0.203400
0.203500
0.203600
0.203700
0.203800
0.203900
0.204000
0.204100
0.204200
0.204300
0.204400
0.204500
0.204600
0.204700
0.204800
0.204900
0.205000
0.205100
0.205200
0.205300
0.205400
0.205500
0.205600
0.205700
0.205800
0.205900
0.206000
0.206100
0.206200
0.206300
0.206400
0.206500
0.206600
0.206700
0.206800
0.206900
0.207000
0.207100
0.207200
0.207300
0.207400
0.207500
0.207600
0.207700
0.207800
0.207900
0.208000
0.208100
0.208200
0.208300
0.208400
0.208500
0.208600
0.208700
0.208800
0.208900
0.209000
0.209100
0.209200
0.209300
0.209400
0.209500
0.209600
0.209700
0.209800
0.209900
0.210000
0.210100
0.210200
0.210300
0.210400
0.210500
0.210600
0.210700
0.210800
0.210900
0.211000
0.211100
0.211200
0.211300
0.211400
0.211500
0.211600
0.211700
0.211800
0.211900
0.212000
0.212100
0.212200
0.212300
0.212400
0.212500
0.212600
0.212700
0.212800
0.212900
0.213000
0.213100
0.213200
0.213300
0.213400
0.213500
0.213600
0.213700
0.213800
0.213900
0.214000
0.214100
0.214200
0.214300
0.214400
0.214500
0.214600
0.214700
0.214800
0.214900
0.215000
0.215100
0.215200
0.215300
0.215400
0.215500
0.215600
0.215700
0.215800
0.215900
0.216000
0.216100
0.216200
0.216300
0.216400
0.216500
0.216600
0.216700
0.216800
0.216900
0.217000
0.217100
0.217200
0.217300
0.217400
0.217500
0.217600
0.217700
0.217800
0.217900
0.218000
0.218100
0.218200
0.218300
0.218400
0.218500
0.218600
0.218700
0.218800
0.218900
0.219000
0.219100
0.219200
0.219300
0.219400
0.219500
0.219600
0.219700
0.219800
0.219900
0.220000
0.220100
0.220200
0.220300
0.220400
0.220500
0.220600
0.220700
0.220800
0.220900
0.221000
0.221100
0.221200
0.221300
0.221400
0.221500