# vtk DataFile Version 2.0
Generated Volume Mesh
ASCII
DATASET UNSTRUCTURED_GRID
POINTS 2428 float
-1.030741 1.179386 0.309358
0.000135 1.212465 0.035303
-0.000067 1.092509 0.031888
-1.031589 1.063004 0.280118
-1.116632 1.147758 0.416020
-1.117576 1.034285 0.377043
-1.116619 1.147273 0.417380
-1.021391 0.995720 0.468453
-1.020470 1.104305 0.519541
0.005387 1.011019 0.670177
0.004681 0.911742 0.602758
-0.000146 0.970194 0.726661
-0.000977 0.875181 0.653366
-1.251119 0.974495 0.739491
-1.252349 0.879486 0.666186
-1.307534 0.991837 0.717388
-1.308762 0.895046 0.646450
-1.309228 0.895377 0.646005
-1.308000 0.992207 0.716891
-1.307372 0.904205 0.823091
-1.308653 0.816561 0.741122
-1.308192 0.816939 0.740711
-1.306911 0.904627 0.822632
-1.250747 0.923461 0.801082
-1.252016 0.833778 0.721348
0.000397 0.919163 0.788257
-0.000491 0.829474 0.708536
0.006912 0.871328 0.838840
0.005984 0.786622 0.753829
-1.016492 0.732240 0.970443
-1.017947 0.661972 0.873169
-1.023743 0.538123 1.083666
-1.025328 0.488096 0.974591
0.010209 0.284154 1.154402
0.008977 0.259446 1.036967
0.010011 0.217071 1.166447
0.008844 0.199275 1.047765
-1.024963 -0.041982 1.186926
-1.026294 -0.033452 1.067228
-1.025967 -0.261863 1.149655
-1.027226 -0.230521 1.033826
0.006925 -0.508399 1.043490
0.006002 -0.452736 0.937170
0.006680 -0.567859 1.010134
0.005727 -0.506107 0.907224
-1.028032 -0.781540 0.858478
-1.029082 -0.698892 0.771459
-1.115119 -0.858365 0.779247
-1.116147 -0.768652 0.699545
-1.115121 -0.859311 0.778156
-1.020934 -0.829882 0.620292
-1.020038 -0.927752 0.689754
0.005519 -1.015587 0.531031
0.004825 -0.908036 0.477770
0.000183 -1.044749 0.467617
-0.000725 -0.934157 0.420970
-1.250821 -1.065530 0.458016
-1.252582 -0.954961 0.411351
-1.307528 -1.055246 0.483574
-1.309239 -0.945862 0.434199
-1.309710 -0.945642 0.434702
-1.308000 -1.054999 0.484137
-1.306061 -1.104179 0.355274
-1.307983 -0.989689 0.319284
-1.307527 -0.989514 0.319819
-1.305606 -1.103984 0.355871
-1.249701 -1.094052 0.383280
-1.251579 -0.980506 0.344415
0.000964 -1.073224 0.392880
-0.000028 -0.959725 0.354029
0.007630 -1.093734 0.326240
0.006703 -0.978015 0.294397
-1.014546 -1.141069 0.131059
-1.016116 -1.021773 0.118036
-1.018608 -1.143581 -0.093748
-1.020699 -1.024028 -0.083323
0.019863 -1.075632 -0.331211
0.017398 -0.961338 -0.294610
0.020867 -1.052945 -0.395486
0.018319 -0.940997 -0.352238
-1.010226 -0.948126 -0.651014
-1.013540 -0.848497 -0.584119
-1.009034 -0.806501 -0.823320
-1.012475 -0.721583 -0.738526
0.024378 -0.581055 -0.966250
0.021063 -0.517100 -0.864699
0.023767 -0.522395 -1.000890
0.020387 -0.464571 -0.895722
-1.014855 -0.308754 -1.121773
-1.018333 -0.276428 -1.006208
-0.001002 0.195745 -1.135768
0.006349 0.126393 -1.142531
0.004334 0.118010 -1.022798
-0.003013 0.180221 -1.016784
-1.251845 0.174423 -1.164689
-1.254537 0.158902 -1.045692
-1.307550 0.145260 -1.169424
-1.310299 0.132678 -1.050082
-1.310751 0.132116 -1.050152
-1.308000 0.144634 -1.169500
-1.310962 0.280694 -1.146916
-1.313407 0.253980 -1.029922
-1.312932 0.253445 -1.030034
-1.310485 0.280096 -1.147043
-1.253565 0.253331 -1.151590
-1.256078 0.229575 -1.033960
-0.002552 0.274645 -1.122679
-0.004408 0.250910 -1.005064
0.002184 0.342723 -1.106740
0.000411 0.311953 -0.990724
-1.024732 0.512028 -1.063670
-1.026469 0.463858 -0.953755
-1.035061 0.708041 -0.953964
-1.036413 0.639476 -0.855491
-0.003517 0.909186 -0.768113
-0.003906 0.820457 -0.687301
-0.003872 0.953640 -0.716319
-0.004225 0.860314 -0.640833
-1.037979 1.099020 -0.494627
-1.038461 0.991221 -0.441904
-1.036944 1.177194 -0.285705
-1.037400 1.061245 -0.254774
-0.000696 1.212411 -0.032897
-0.000763 1.092461 -0.029211
-1.017881 1.154578 -0.360041
0.017864 1.207399 -0.110547
0.017843 1.087973 -0.098804
-1.018352 1.040968 -0.321351
-1.018159 1.130639 -0.423878
-1.018705 1.019526 -0.378517
0.015267 1.000372 -0.654265
0.014938 0.902204 -0.585247
0.016420 0.855051 -0.823563
0.015941 0.771987 -0.736952
-1.014722 0.642983 -0.995838
-1.016200 0.581164 -0.892959
-1.011547 0.583083 -1.029359
-1.013224 0.527490 -0.923009
0.014857 0.418265 -1.083704
0.013201 0.379704 -0.970078
0.085351 0.236743 -1.128283
0.083453 0.217105 -1.009892
0.022077 0.047990 -1.145088
0.019892 0.047757 -1.025096
-0.997070 -0.166373 -1.151515
-1.000041 -0.148929 -1.032785
-1.028196 -0.179804 -1.028484
-1.025012 -0.200821 -1.146662
-1.000782 -0.208267 -1.022259
-0.997478 -0.232744 -1.139744
0.042218 -0.452708 -1.035588
0.038895 -0.402115 -0.926768
0.044390 -0.644865 -0.922340
0.040994 -0.574221 -0.825330
-0.989852 -0.859101 -0.766180
-0.993287 -0.768660 -0.687282
-0.990220 -0.902387 -0.713508
-0.993612 -0.807474 -0.640057
0.041353 -1.022259 -0.466493
0.038668 -0.913500 -0.415769
0.038053 -1.096507 -0.256155
0.035702 -0.980015 -0.227331
-1.000444 -1.147407 -0.015931
-1.002421 -1.027424 -0.013588
-0.999251 -1.146723 0.052728
-1.001005 -1.026813 0.047906
0.022509 -1.111856 0.249726
0.021444 -0.994237 0.225915
0.087703 -1.058752 0.431068
0.086804 -0.946623 0.388294
0.018869 -0.978114 0.600438
0.018222 -0.874455 0.539954
-1.006135 -0.879905 0.752340
-1.007055 -0.787004 0.676346
-1.036100 -0.767627 0.699658
-1.035104 -0.858278 0.778343
-1.009592 -0.747504 0.721822
-1.008527 -0.835839 0.803066
0.025813 -0.632985 0.967832
0.024890 -0.564456 0.869310
0.026675 -0.438467 1.076973
0.025702 -0.390110 0.967139
-1.006130 -0.186383 1.167179
-1.007435 -0.162888 1.049489
-1.005834 -0.119208 1.178579
-1.007158 -0.102617 1.059725
0.029219 0.139922 1.175174
0.028065 0.130158 1.055576
0.029789 0.359428 1.135685
0.028512 0.326852 1.020193
-1.004448 0.607442 1.048724
-1.006035 0.550179 0.943261
-1.002258 0.666787 1.014180
-1.003780 0.603356 0.912317
0.021441 0.813661 0.892336
0.020424 0.734968 0.801741
0.087274 0.945138 0.757061
0.086439 0.852726 0.680506
0.018837 1.052991 0.603412
0.018161 0.949331 0.542961
-1.007295 1.135341 0.447008
-1.008160 1.023517 0.403446
-1.037518 1.034193 0.375345
-1.036601 1.147264 0.415638
-1.011322 1.043735 0.346645
-1.010373 1.157882 0.383670
0.020505 1.207622 0.112502
0.020200 1.088173 0.101026
0.106201 1.092832 0.000008
0.106297 1.212856 0.000009
0.026206 1.092912 0.001010
0.026320 1.212911 0.000900
-1.108195 -0.183056 -1.030082
-1.105058 -0.204149 -1.148188
-1.105099 -0.202726 -1.148440
-1.013454 -0.088540 -1.160562
-1.016166 -0.079301 -1.040928
-1.108233 -0.181784 -1.030308
-0.515561 1.202633 0.173182
-0.516191 1.083764 0.156794
-1.092337 1.169214 0.348684
-1.095292 1.053261 0.317865
-1.090916 1.010844 0.436182
-1.088175 1.120299 0.485287
-0.507785 1.060625 0.596124
-0.508473 0.956371 0.536699
0.034506 0.989354 0.700691
0.033716 0.892148 0.630321
-0.834075 0.972513 0.735187
-0.417108 0.971010 0.730871
-0.418133 0.876002 0.657568
-0.835257 0.877511 0.661884
-0.416618 0.919988 0.792467
-0.833669 0.921489 0.796779
-0.834894 0.831800 0.717047
-0.417693 0.830287 0.712736
0.035510 0.897521 0.811550
0.034586 0.810299 0.729129
-0.504984 0.803580 0.907245
-0.506135 0.725865 0.815811
-1.087532 0.576368 1.066194
-1.111100 0.640745 1.031548
-1.083319 0.701402 0.993023
-1.086792 0.632659 0.894617
-1.112588 0.581677 0.927064
-1.091249 0.524712 0.957909
-0.506917 0.413469 1.125494
-0.508354 0.375895 1.011539
0.036725 0.250590 1.160667
0.035517 0.229335 1.042548
-0.507749 0.087892 1.183551
-0.508941 0.083243 1.063650
-1.101491 -0.201440 1.165134
-1.101413 -0.104088 1.181641
-1.097919 -0.080902 1.063557
-1.106868 -0.168022 1.049590
-0.509902 -0.387949 1.102846
-0.510921 -0.344174 0.991123
0.033415 -0.538361 1.027020
0.032468 -0.479626 0.922346
-0.511069 -0.678310 0.940366
-0.512138 -0.605706 0.844817
-1.090072 -0.810403 0.830822
-1.093211 -0.726564 0.744968
-1.090123 -0.808808 0.649856
-1.087408 -0.905397 0.721046
-0.507751 -0.974980 0.611250
-0.508379 -0.871963 0.549685
0.034736 -1.031492 0.497182
0.033926 -0.922389 0.447179
-0.833750 -1.057673 0.461301
-0.416764 -1.050411 0.464610
-0.418216 -0.939794 0.417957
-0.835458 -0.947107 0.414645
-0.415726 -1.078899 0.389870
-0.832651 -1.086197 0.386570
-0.834472 -0.972647 0.347706
-0.417281 -0.965362 0.350997
0.036123 -1.082839 0.362640
0.035160 -0.968145 0.327278
-0.503890 -1.120421 0.230086
-0.505004 -1.002535 0.207612
-1.083025 -1.147468 -0.052792
-1.107637 -1.149214 0.019981
-1.080863 -1.145625 0.092162
-1.084488 -1.026107 0.081001
-1.109449 -1.029190 0.020272
-1.087200 -1.027796 -0.044204
-0.499585 -1.116585 -0.214316
-0.501912 -0.998948 -0.190644
0.046989 -1.064372 -0.362954
0.044469 -0.951198 -0.323014
-0.494800 -1.006447 -0.526484
-0.497692 -0.900009 -0.471076
-1.085069 -0.850523 -0.780006
-1.085949 -0.913227 -0.703729
-1.084629 -0.822242 -0.624838
-1.092676 -0.766887 -0.693661
-0.492298 -0.698797 -0.900051
-0.495583 -0.623895 -0.806298
0.050693 -0.551374 -0.983490
0.047344 -0.490456 -0.880085
-0.495296 -0.417235 -1.067999
-0.498879 -0.371847 -0.956927
0.034481 0.164483 -1.138791
0.032451 0.152568 -1.019373
-0.834789 0.181707 -1.154299
-0.417862 0.188857 -1.144483
-0.420250 0.173331 -1.025492
-0.837421 0.166183 -1.035316
-0.419497 0.267767 -1.131404
-0.836508 0.260612 -1.141216
-0.838960 0.236857 -1.023580
-0.421715 0.244016 -1.013747
0.031731 0.306549 -1.115245
0.029917 0.279251 -0.998380
-0.511747 0.427479 -1.088703
-0.513551 0.387924 -0.975412
-1.098266 0.672830 -0.978460
-1.120836 0.610038 -1.016509
-1.092077 0.546380 -1.049033
-1.095764 0.496465 -0.939856
-1.122331 0.550016 -0.912563
-1.101822 0.605747 -0.878993
-0.519871 0.813515 -0.865394
-0.520598 0.734369 -0.775201
0.022920 0.931818 -0.742378
0.022541 0.840740 -0.664200
-0.521564 1.031789 -0.610352
-0.521970 0.930617 -0.545824
-1.113079 1.160013 -0.344925
-1.113884 1.125423 -0.437429
-1.109656 1.011676 -0.398239
-1.117736 1.043294 -0.315776
-0.519377 1.201671 -0.159477
-0.519506 1.082947 -0.142034
-0.499942 1.187778 -0.235802
-0.500124 1.070510 -0.210412
-1.044625 1.143225 -0.392047
-1.045132 1.030812 -0.350004
-0.501305 1.071096 -0.543698
-0.501843 0.965827 -0.486162
0.091873 0.898733 -0.778953
0.091695 0.963028 -0.704059
0.086573 0.873848 -0.623382
0.095560 0.816887 -0.690744
[...]
POINT_DATA 2428
SCALARS var1 float
LOOKUP_TABLE default
0.000000
0.000100
0.000200
0.000300
0.000400
0.000500
0.000600
0.000700
0.000800
0.000900
0.001000
0.001100
0.001200
0.001300
0.001400
0.001500
0.001600
0.001700
0.001800
0.001900
0.002000
0.002100
0.002200
0.002300
0.002400
0.002500
0.002600
0.002700
0.002800
0.002900
0.003000
0.003100
0.003200
0.003300
0.003400
0.003500
0.003600
0.003700
0.003800
0.003900
0.004000
0.004100
0.004200
0.004300
0.004400
0.004500
0.004600
0.004700
0.004800
0.004900
0.005000
0.005100
0.005200
0.005300
0.005400
0.005500
0.005600
0.005700
0.005800
0.005900
0.006000
0.006100
0.006200
0.006300
0.006400
0.006500
0.006600
0.006700
0.006800
0.006900
0.007000
0.007100
0.007200
0.007300
0.007400
0.007500
0.007600
0.007700
0.007800
0.007900
0.008000
0.008100
0.008200
0.008300
0.008400
0.008500
0.008600
0.008700
0.008800
0.008900
0.009000
0.009100
0.009200
0.009300
0.009400
0.009500
0.009600
0.009700
0.009800
0.009900
0.010000
0.010100
0.010200
0.010300
0.010400
0.010500
0.010600
0.010700
0.010800
0.010900
0.011000
0.011100
0.011200
0.011300
0.011400
0.011500
0.011600
0.011700
0.011800
0.011900
0.012000
0.012100
0.012200
0.012300
0.012400
0.012500
0.012600
0.012700
0.012800
0.012900
0.013000
0.013100
0.013200
0.013300
0.013400
0.013500
0.013600
0.013700
0.013800
0.013900
0.014000
0.014100
0.014200
0.014300
0.014400
0.014500
0.014600
0.014700
0.014800
0.014900
0.015000
0.015100
0.015200
0.015300
0.015400
0.015500
0.015600
0.015700
0.015800
0.015900
0.016000
0.016100
0.016200
0.016300
0.016400
0.016500
0.016600
0.016700
0.016800
0.016900
0.017000
0.017100
0.017200
0.017300
0.017400
0.017500
0.017600
0.017700
0.017800
0.017900
0.018000
0.018100
0.018200
0.018300
0.018400
0.018500
0.018600
0.018700
0.018800
0.018900
0.019000
0.019100
0.019200
0.019300
0.019400
0.019500
0.019600
0.019700
0.019800
0.019900
0.020000
0.020100
0.020200
0.020300
0.020400
0.020500
0.020600
0.020700
0.020800
0.020900
0.021000
0.021100
0.021200
0.021300
0.021400
0.021500
0.021600
0.021700
0.021800
0.021900
0.022000
0.022100
0.022200
0.022300
0.022400
0.022500
0.022600
0.022700
0.022800
0.022900
0.023000
0.023100
0.023200
0.023300
0.023400
0.023500
0.023600
0.023700
0.023800
0.023900
0.024000
0.024100
0.024200
0.024300
0.024400
0.024500
0.024600
0.024700
0.024800
0.024900
0.025000
0.025100
0.025200
0.025300
0.025400
0.025500
0.025600
0.025700
0.025800
0.025900
0.026000
0.026100
0.026200
0.026300
0.026400
0.026500
0.026600
0.026700
0.026800
0.026900
0.027000
0.027100
0.027200
0.027300
0.027400
0.027500
0.027600
0.027700
0.027800
0.027900
0.028000
0.028100
0.028200
0.028300
0.028400
0.028500
0.028600
0.028700
0.028800
0.028900
0.029000
0.029100
0.029200
0.029300
0.029400
0.029500
0.029600
0.029700
0.029800
0.029900
0.030000
0.030100
0.030200
0.030300
0.030400
0.030500
0.030600
0.030700
0.030800
0.030900
0.031000
0.031100
0.031200
0.031300
0.031400
0.031500
0.031600
0.031700
0.031800
0.031900
0.032000
0.032100
0.032200
0.032300
0.032400
0.032500
0.032600
0.032700
0.032800
0.032900
0.033000
0.033100
0.033200
0.033300
0.033400
0.033500
0.033600
0.033700
0.033800
0.033900
0.034000
0.034100
0.034200
0.034300
0.034400
0.034500
0.034600
0.034700
0.034800
0.034900
0.035000
0.035100
0.035200
0.035300
0.035400
0.035500
0.035600
0.035700
0.035800
0.035900
0.036000
0.036100
0.036200
0.036300
0.036400
0.036500
0.036600
0.036700
0.036800
0.036900
0.037000
0.037100
0.037200
0.037300
0.037400
0.037500
0.037600
0.037700
0.037800
0.037900
0.038000
0.038100
0.038200
0.038300
0.038400
0.038500
0.038600
0.038700
0.038800
0.038900
0.039000
0.039100
0.039200
0.039300
0.039400
0.039500
0.039600
0.039700
0.039800
0.039900
0.040000
0.040100
0.040200
0.040300
0.040400
0.040500
0.040600
0.040700
0.040800
0.040900
0.041000
0.041100
0.041200
0.041300
0.041400
0.041500
0.041600
0.041700
0.041800
0.041900
0.042000
0.042100
0.042200
0.042300
0.042400
0.042500
0.042600
0.042700
0.042800
0.042900
0.043000
0.043100
0.043200
0.043300
0.043400
0.043500
0.043600
0.043700
0.043800
0.043900
0.044000
0.044100
0.044200
0.044300
0.044400
0.044500
0.044600
0.044700
0.044800
0.044900
0.045000
0.045100
0.045200
0.045300
0.045400
0.045500
0.045600
0.045700
0.045800
0.045900
0.046000
0.046100
0.046200
0.046300
0.046400
0.046500
0.046600
0.046700
0.046800
0.046900
0.047000
0.047100
0.047200
0.047300
0.047400
0.047500
0.047600
0.047700
0.047800
0.047900
0.048000
0.048100
0.048200
0.048300
0.048400
0.048500
0.048600
0.048700
0.048800
0.048900
0.049000
0.049100
0.049200
0.049300
0.049400
0.049500
0.049600
0.049700
0.049800
0.049900
0.050000
0.050100
0.050200
0.050300
0.050400
0.050500
0.050600
0.050700
0.050800
0.050900
0.051000
0.051100
0.051200
0.051300
0.051400
0.051500
0.051600
0.051700
0.051800
0.051900
0.052000
0.052100
0.052200
0.052300
0.052400
0.052500
0.052600
0.052700
0.052800
0.052900
0.053000
0.053100
0.053200
0.053300
0.053400
0.053500
0.053600
0.053700
0.053800
0.053900
0.054000
0.054100
0.054200
0.054300
0.054400
0.054500
0.054600
0.054700
0.054800
0.054900
0.055000
0.055100
0.055200
0.055300
0.055400
0.055500
0.055600
0.055700
0.055800
0.055900
0.056000
0.056100
0.056200
0.056300
0.056400
0.056500
0.056600
0.056700
0.056800
0.056900
0.057000
0.057100
0.057200
0.057300
0.057400
0.057500
0.057600
0.057700
0.057800
0.057900
0.058000
0.058100
0.058200
0.058300
0.058400
0.058500
0.058600
0.058700
0.058800
0.058900
0.059000
0.059100
0.059200
0.059300
0.059400
0.059500
0.059600
0.059700
0.059800
0.059900
0.060000
0.060100
0.060200
0.060300
0.060400
0.060500
0.060600
0.060700
0.060800
0.060900
0.061000
0.061100
0.061200
0.061300
0.061400
0.061500
0.061600
0.061700
0.061800
0.061900
0.062000
0.062100
0.062200
0.062300
0.062400
0.062500
0.062600
0.062700
0.062800
0.062900
0.063000
0.063100
0.063200
0.063300
0.063400
0.063500
0.063600
0.063700
0.063800
0.063900
0.064000
0.064100
0.064200
0.064300
0.064400
0.064500
0.064600
0.064700
0.064800
0.064900
0.065000
0.065100
0.065200
0.065300
0.065400
0.065500
0.065600
0.065700
0.065800
0.065900
0.066000
0.066100
0.066200
0.066300
0.066400
0.066500
0.066600
0.066700
0.066800
0.066900
0.067000
0.067100
0.067200
0.067300
0.067400
0.067500
0.067600
0.067700
0.067800
0.067900
0.068000
0.068100
0.068200
0.068300
0.068400
0.068500
0.068600
0.068700
0.068800
0.068900
0.069000
0.069100
0.069200
0.069300
0.069400
0.069500
0.069600
0.069700
0.069800
0.069900
0.070000
0.070100
0.070200
0.070300
0.070400
0.070500
0.070600
0.070700
0.070800
0.070900
0.071000
0.071100
0.071200
0.071300
0.071400
0.071500
0.071600
0.071700
0.071800
0.071900
0.072000
0.072100
0.072200
0.072300
0.072400
0.072500
0.072600
0.072700
0.072800
0.072900
0.073000
0.073100
0.073200
0.073300
0.073400
0.073500
0.073600
0.073700
0.073800
0.073900
0.074000
0.074100
0.074200
0.074300
0.074400
0.074500
0.074600
0.074700
0.074800
0.074900
0.075000
0.075100
0.075200
0.075300
0.075400
0.075500
0.075600
0.075700
0.075800
0.075900
0.076000
0.076100
0.076200
0.076300
0.076400
0.076500
0.076600
0.076700
0.076800
0.076900
0.077000
0.077100
0.077200
0.077300
0.077400
0.077500
0.077600
0.077700
0.077800
0.077900
0.078000
0.078100
0.078200
0.078300
0.078400
0.078500
0.078600
0.078700
0.078800
0.078900
0.079000
0.079100
0.079200
0.079300
0.079400
0.079500
0.079600
0.079700
0.079800
0.079900
0.080000
0.080100
0.080200
0.080300
0.080400
0.080500
0.080600
0.080700
0.080800
0.080900
0.081000
0.081100
0.081200
0.081300
0.081400
0.081500
0.081600
0.081700
0.081800
0.081900
0.082000
0.082100
0.082200
0.082300
0.082400
0.082500
0.082600
0.082700
0.082800
0.082900
0.083000
0.083100
0.083200
0.083300
0.083400
0.083500
0.083600
0.083700
0.083800
0.083900
0.084000
0.084100
0.084200
0.084300
0.084400
0.084500
0.084600
0.084700
0.084800
0.084900
0.085000
0.085100
0.085200
0.085300
0.085400
0.085500
0.085600
0.085700
0.085800
0.085900
0.086000
0.086100
0.086200
0.086300
0.086400
0.086500
0.086600
0.086700
0.086800
0.086900
0.087000
0.087100
0.087200
0.087300
0.087400
0.087500
0.087600
0.087700
0.087800
0.087900
0.088000
0.088100
0.088200
0.088300
0.088400
0.088500
0.088600
0.088700
0.088800
0.088900
0.089000
0.089100
0.089200
0.089300
0.089400
0.089500
0.089600
0.089700
0.089800
0.089900
0.090000
0.090100
0.090200
0.090300
0.090400
0.090500
0.090600
0.090700
0.090800
0.090900
0.091000
0.091100
0.091200
0.091300
0.091400
0.091500
0.091600
0.091700
0.091800
0.091900
0.092000
0.092100
0.092200
0.092300
0.092400
0.092500
0.092600
0.092700
0.092800
0.092900
0.093000
0.093100
0.093200
0.093300
0.093400
0.093500
0.093600
0.093700
0.093800
0.093900
0.094000
0.094100
0.094200
0.094300
0.094400
0.094500
0.094600
0.094700
0.094800
0.094900
0.095000
0.095100
0.095200
0.095300
0.095400
0.095500
0.095600
0.095700
0.095800
0.095900
0.096000
0.096100
0.096200
0.096300
0.096400
0.096500
0.096600
0.096700
0.096800
0.096900
0.097000
0.097100
0.097200
0.097300
0.097400
0.097500
0.097600
0.097700
0.097800
0.097900
0.098000
0.098100
0.098200
0.098300
0.098400
0.098500
0.098600
0.098700
0.098800
0.098900
0.099000
0.099100
0.099200
0.099300
0.099400
0.099500
0.099600
0.099700
0.099800
0.099900
0.100000
0.100100
0.100200
0.100300
0.100400
0.100500
0.100600
0.100700
0.100800
0.100900
0.101000
0.101100
0.101200
0.101300
0.101400
0.101500
0.101600
0.101700
0.101800
0.101900
0.102000
0.102100
0.102200
0.102300
0.102400
0.102500
0.102600
0.102700
0.102800
0.102900
0.103000
0.103100
0.103200
0.103300
0.103400
0.103500
0.103600
0.103700
0.103800
0.103900
0.104000
0.104100
0.104200
0.104300
0.104400
0.104500
0.104600
0.104700
0.104800
0.104900
0.105000
0.105100
0.105200
0.105300
0.105400
0.105500
0.105600
0.105700
0.105800
0.105900
0.106000
0.106100
0.106200
0.106300
0.106400
0.106500
0.106600
0.106700
0.106800
0.106900
0.107000
0.107100
0.107200
0.107300
0.107400
0.107500
0.107600
0.107700
0.107800
0.107900
0.108000
0.108100
0.108200
0.108300
0.108400
0.108500
0.108600
0.108700
0.108800
0.108900
0.109000
0.109100
0.109200
0.109300
0.109400
0.109500
0.109600
0.109700
0.109800
0.109900
0.110000
0.110100
0.110200
0.110300
0.110400
0.110500
0.110600
0.110700
0.110800
0.110900
0.111000
0.111100
0.111200
0.111300
0.111400
0.111500
0.111600
0.111700
0.111800
0.111900
0.112000
0.112100
0.112200
0.112300
0.112400
0.112500
0.112600
0.112700
0.112800
0.112900
0.113000
0.113100
0.113200
0.113300
0.113400
0.113500
0.113600
0.113700
0.113800
0.113900
0.114000
0.114100
0.114200
0.114300
0.114400
0.114500
0.114600
0.114700
0.114800
0.114900
0.115000
0.115100
0.115200
0.115300
0.115400
0.115500
0.115600
0.115700
0.115800
0.115900
0.116000
0.116100
0.116200
0.116300
0.116400
0.116500
0.116600
0.116700
0.116800
0.116900
0.117000
0.117100
0.117200
0.117300
0.117400
0.117500
0.117600
0.117700
0.117800
0.117900
0.118000
0.118100
0.118200
0.118300
0.118400
0.118500
0.118600
0.118700
0.118800
0.118900
0.119000
0.119100
0.119200
0.119300
0.119400
0.119500
0.119600
0.119700
0.119800
0.119900
0.120000
0.120100
0.120200
0.120300
0.120400
0.120500
0.120600
0.120700
0.120800
0.120900
0.121000
0.121100
0.121200
0.121300
0.121400
0.121500
0.121600
0.121700
0.121800
0.121900
0.122000
0.122100
0.122200
0.122300
0.122400
0.122500
0.122600
0.122700
0.122800
0.122900
0.123000
0.123100
0.123200
0.123300
0.123400
0.123500
0.123600
0.123700
0.123800
0.123900
0.124000
0.124100
0.124200
0.124300
0.124400
0.124500
0.124600
0.124700
0.124800
0.124900
0.125000
0.125100
0.125200
0.125300
0.125400
0.125500
0.125600
0.125700
0.125800
0.125900
0.126000
0.126100
0.126200
0.126300
0.126400
0.126500
0.126600
0.126700
0.126800
0.126900
0.127000
0.127100
0.127200
0.127300
0.127400
0.127500
0.127600
0.127700
0.127800
0.127900
0.128000
0.128100
0.128200
0.128300
0.128400
0.128500
0.128600
0.128700
0.128800
0.128900
0.129000
0.129100
0.129200
0.129300
0.129400
0.129500
0.129600
0.129700
0.129800
0.129900
0.130000
0.130100
0.130200
0.130300
0.130400
0.130500
0.130600
0.130700
0.130800
0.130900
0.131000
0.131100
0.131200
0.131300
0.131400
0.131500
0.131600
0.131700
0.131800
0.131900
0.132000
0.132100
0.132200
0.132300
0.132400
0.132500
0.132600
0.132700
0.132800
0.132900
0.133000
0.133100
0.133200
0.133300
0.133400
0.133500
0.133600
0.133700
0.133800
0.133900
0.134000
0.134100
0.134200
0.134300
0.134400
0.134500
0.134600
0.134700
0.134800
0.134900
0.135000
0.135100
0.135200
0.135300
0.135400
0.135500
0.135600
0.135700
0.135800
0.135900
0.136000
0.136100
0.136200
0.136300
0.136400
0.136500
0.136600
0.136700
0.136800
0.136900
0.137000
0.137100
0.137200
0.137300
0.137400
0.137500
0.137600
0.137700
0.137800
0.137900
0.138000
0.138100
0.138200
0.138300
0.138400
0.138500
0.138600
0.138700
0.138800
0.138900
0.139000
0.139100
0.139200
0.139300
0.139400
0.139500
0.139600
0.139700
0.139800
0.139900
0.140000
0.140100
0.140200
0.140300
0.140400
0.140500
0.140600
0.140700
0.140800
0.140900
0.141000
0.141100
0.141200
0.141300
0.141400
0.141500
0.141600
0.141700
0.141800
0.141900
0.142000
0.142100
0.142200
0.142300
0.142400
0.142500
0.142600
0.142700
0.142800
0.142900
0.143000
0.143100
0.143200
0.143300
0.143400
0.143500
0.143600
0.143700
0.143800
0.143900
0.144000
0.144100
0.144200
0.144300
0.144400
0.144500
0.144600
0.144700
0.144800
0.144900
0.145000
0.145100
0.145200
0.145300
0.145400
0.145500
0.145600
0.145700
0.145800
0.145900
0.146000
0.146100
0.146200
0.146300
0.146400
0.146500
0.146600
0.146700
0.146800
0.146900
0.147000
0.147100
0.147200
0.147300
0.147400
0.147500
0.147600
0.147700
0.147800
0.147900
0.148000
0.148100
0.148200
0.148300
0.148400
0.148500
0.148600
0.148700
0.148800
0.148900
0.149000
0.149100
0.149200
0.149300
0.149400
0.149500
0.149600
0.149700
0.149800
0.149900
0.150000
0.150100
0.150200
0.150300
0.150400
0.150500
0.150600
0.150700
0.150800
0.150900
0.151000
0.151100
0.151200
0.151300
0.151400
0.151500
0.151600
0.151700
0.151800
0.151900
0.152000
0.152100
0.152200
0.152300
0.152400
0.152500
0.152600
0.152700
0.152800
0.152900
0.153000
0.153100
0.153200
0.153300
0.153400
0.153500
0.153600
0.153700
0.153800
0.153900
0.154000
0.154100
0.154200
0.154300
0.154400
0.154500
0.154600
0.154700
0.154800
0.154900
0.155000
0.155100
0.155200
0.155300
0.155400
0.155500
0.155600
0.155700
0.155800
0.155900
0.156000
0.156100
0.156200
0.156300
0.156400
0.156500
0.156600
0.156700
0.156800
0.156900
0.157000
0.157100
0.157200
0.157300
0.157400
0.157500
0.157600
0.157700
0.157800
0.157900
0.158000
0.158100
0.158200
0.158300
0.158400
0.158500
0.158600
0.158700
0.158800
0.158900
0.159000
0.159100
0.159200
0.159300
0.159400
0.159500
0.159600
0.159700
0.159800
0.159900
0.160000
0.160100
0.160200
0.160300
0.160400
0.160500
0.160600
0.160700
0.160800
0.160900
0.161000
0.161100
0.161200
0.161300
0.161400
0.161500
0.161600
0.161700
0.161800
0.161900
0.162000
0.162100
0.162200
0.162300
0.162400
0.162500
0.162600
0.162700
0.162800
0.162900
0.163000
0.163100
0.163200
0.163300
0.163400
0.163500
0.163600
0.163700
0.163800
0.163900
0.164000
0.164100
0.164200
0.164300
0.164400
0.164500
0.164600
0.164700
0.164800
0.164900
0.165000
0.165100
0.165200
0.165300
0.165400
0.165500
0.165600
0.165700
0.165800
0.165900
0.166000
0.166100
0.166200
0.166300
0.166400
0.166500
0.166600
0.166700
0.166800
0.166900
0.167000
0.167100
0.167200
0.167300
0.167400
0.167500
0.167600
0.167700
0.167800
0.167900
0.168000
0.168100
0.168200
0.168300
0.168400
0.168500
0.168600
0.168700
0.168800
0.168900
0.169000
0.169100
0.169200
0.169300
0.169400
0.169500
0.169600
0.169700
0.169800
0.169900
0.170000
0.170100
0.170200
0.170300
0.170400
0.170500
0.170600
0.170700
0.170800
0.170900
0.171000
0.171100
0.171200
0.171300
0.171400
0.171500
0.171600
0.171700
0.171800
0.171900
0.172000
0.172100
0.172200
0.172300
0.172400
0.172500
0.172600
0.172700
0.172800
0.172900
0.173000
0.173100
0.173200
0.173300
0.173400
0.173500
0.173600
0.173700
0.173800
0.173900
0.174000
0.174100
0.174200
0.174300
0.174400
0.174500
0.174600
0.174700
0.174800
0.174900
0.175000
0.175100
0.175200
0.175300
0.175400
0.175500
0.175600
0.175700
0.175800
0.175900
0.176000
0.176100
0.176200
0.176300
0.176400
0.176500
0.176600
0.176700
0.176800
0.176900
0.177000
0.177100
0.177200
0.177300
0.177400
0.177500
0.177600
0.177700
0.177800
0.177900
0.178000
0.178100
0.178200
0.178300
0.178400
0.178500
0.178600
0.178700
0.178800
0.178900
0.179000
0.179100
0.179200
0.179300
0.179400
0.179500
0.179600
0.179700
0.179800
0.179900
0.180000
0.180100
0.180200
0.180300
0.180400
0.180500
0.180600
0.180700
0.180800
0.180900
0.181000
0.181100
0.181200
0.181300
0.181400
0.181500
0.181600
0.181700
0.181800
0.181900
0.182000
0.182100
0.182200
0.182300
0.182400
0.182500
0.182600
0.182700
0.182800
0.182900
0.183000
0.183100
0.183200
0.183300
0.183400
0.183500
0.183600
0.183700
0.183800
0.183900
0.184000
0.184100
0.184200
0.184300
0.184400
0.184500
0.184600
0.184700
0.184800
0.184900
0.185000
0.185100
0.185200
0.185300
0.185400
0.185500
0.185600
0.185700
0.185800
0.185900
0.186000
0.186100
0.186200
0.186300
0.186400
0.186500
0.186600
0.186700
0.186800
0.186900
0.187000
0.187100
0.187200
0.187300
0.187400
0.187500
0.187600
0.187700
0.187800
0.187900
0.188000
0.188100
0.188200
0.188300
0.188400
0.188500
0.188600
0.188700
0.188800
0.188900
0.189000
0.189100
0.189200
0.189300
0.189400
0.189500
0.189600
0.189700
0.189800
0.189900
0.190000
0.190100
0.190200
0.190300
0.190400
0.190500
0.190600
0.190700
0.190800
0.190900
0.191000
0.191100
0.191200
0.191300
0.191400
0.191500
0.191600
0.191700
0.191800
0.191900
0.192000
0.192100
0.192200
0.192300
0.192400
0.192500
0.192600
0.192700
0.192800
0.192900
0.193000
0.193100
0.193200
0.193300
0.193400
0.193500
0.193600
0.193700
0.193800
0.193900
0.194000
0.194100
0.194200
0.194300
0.194400
0.194500
0.194600
0.194700
0.194800
0.194900
0.195000
0.195100
0.195200
0.195300
0.195400
0.195500
0.195600
0.195700
0.195800
0.195900
0.196000
0.196100
0.196200
0.196300
0.196400
0.196500
0.196600
0.196700
0.196800
0.196900
0.197000
0.197100
0.197200
0.197300
0.197400
0.197500
0.197600
0.197700
0.197800
0.197900
0.198000
0.198100
0.198200
0.198300
0.198400
0.198500
0.198600
0.198700
0.198800
0.198900
0.199000
0.199100
0.199200
0.199300
0.199400
0.199500
0.199600
0.199700
0.199800
0.199900
0.200000
0.200100
0.200200
0.200300
0.200400
0.200500
0.200600
0.200700
0.200800
0.200900
0.201000
0.201100
0.201200
0.201300
0.201400
0.201500
0.201600
0.201700
0.201800
0.201900
0.202000
0.202100
0.202200
0.202300
0.202400
0.202500
0.202600
0.202700
0.202800
0.202900
0.203000
0.203100
0.203200
0.203300
0.203400
0.203500
0.203600
0.203700
0.203800
0.203900
0.204000
0.204100
0.204200
0.204300
0.204400
0.204500
0.204600
0.204700
0.204800
0.204900
0.205000
0.205100
0.205200
0.205300
0.205400
0.205500
0.205600
0.205700
0.205800
0.205900
0.206000
0.206100
0.206200
0.206300
0.206400
0.206500
0.206600
0.206700
0.206800
0.206900
0.207000
0.207100
0.207200
0.207300
0.207400
0.207500
0.207600
0.207700
0.207800
0.207900
0.208000
0.208100
0.208200
0.208300
0.208400
0.208500
0.208600
0.208700
0.208800
0.208900
0.209000
0.209100
0.209200
0.209300
0.209400
0.209500
0.209600
0.209700
0.209800
0.209900
0.210000
0.210100
0.210200
0.210300
0.210400
0.210500
0.210600
0.210700
0.210800
0.210900
0.211000
0.211100
0.211200
0.211300
0.211400
0.211500
0.211600
0.211700
0.211800
0.211900
0.212000
0.212100
0.212200
0.212300
0.212400
0.212500
0.212600
0.212700
0.212800
0.212900
0.213000
0.213100
0.213200
0.213300
0.213400
0.213500
0.213600
0.213700
0.213800
0.213900
0.214000
0.214100
0.214200
0.214300
0.214400
0.214500
0.214600
0.214700
0.214800
0.214900
0.215000
0.215100
0.215200
0.215300
0.215400
0.215500
0.215600
0.215700
0.215800
0.215900
0.216000
0.216100
0.216200
0.216300
0.216400
0.216500
0.216600
0.216700
0.216800
0.216900
0.217000
0.217100
0.217200
0.217300
0.217400
0.217500
0.217600
0.217700
0.217800
0.217900
0.218000
0.218100
0.218200
0.218300
0.218400
0.218500
0.218600
0.218700
0.218800
0.218900
0.219000
0.219100
0.219200
0.219300
0.219400
0.219500
0.219600
0.219700
0.219800
0.219900
0.220000
0.220100
0.220200
0.220300
0.220400
0.220500
0.220600
0.220700
0.220800
0.220900
0.221000
0.221100
0.221200
0.221300
0.221400
0.221500