# vtk DataFile Version 2.0
Generated Volume Mesh
ASCII
DATASET UNSTRUCTURED_GRID
POINTS 2428 float
-1.019894 0.952820 0.232198
0.028600 0.995536 0.030721
0.029094 0.875609 0.026856
-1.017821 0.837051 0.200533
-1.110978 0.917967 0.333926
-1.108687 0.805270 0.292432
-1.111027 0.917452 0.335281
-1.015765 0.765893 0.386948
-1.018018 0.873268 0.440559
0.007546 0.793132 0.605228
0.009271 0.695161 0.535932
0.000357 0.751511 0.660178
0.002388 0.657873 0.585102
-1.251589 0.740994 0.628809
-1.248580 0.647345 0.553756
-1.307545 0.757770 0.605033
-1.304542 0.662305 0.532315
-1.304998 0.662636 0.531861
-1.308000 0.758141 0.604527
-1.309537 0.668205 0.709092
-1.306403 0.582077 0.625517
-1.305935 0.582471 0.625129
-1.309068 0.668643 0.708658
-1.252499 0.688832 0.689446
-1.249396 0.600626 0.608072
-0.000972 0.699341 0.720804
0.001200 0.611149 0.639399
0.003815 0.651028 0.770220
0.006086 0.567899 0.683687
-1.027743 0.520409 0.845326
-1.024186 0.451092 0.747361
-1.037005 0.325545 0.956223
-1.033130 0.276598 0.846655
0.003970 0.109772 1.056684
0.006980 0.086230 0.939026
0.004452 0.043290 1.067975
0.007305 0.026901 0.949115
-1.034022 -0.203079 1.047898
-1.030767 -0.192035 0.928391
-1.031567 -0.421827 1.005823
-1.028488 -0.387634 0.890757
0.011997 -0.635624 0.936659
0.014255 -0.575685 0.832648
0.012598 -0.692957 0.901179
0.014927 -0.626752 0.801041
-1.026518 -0.863488 0.729170
-1.023950 -0.776064 0.646819
-1.114677 -0.933509 0.644477
-1.112181 -0.839320 0.569875
-1.114689 -0.934397 0.643331
-1.016883 -0.898185 0.488881
-1.019073 -0.999931 0.552697
0.007223 -1.092634 0.407362
0.008918 -0.982476 0.359596
-0.000448 -1.117800 0.343391
0.001772 -1.005012 0.302308
-1.252318 -1.066990 0.366869
-1.248011 -0.954144 0.325828
-1.307560 -1.054332 0.394536
-1.303376 -0.942532 0.350714
-1.303819 -0.942307 0.351242
-1.308000 -1.054083 0.395124
-1.312741 -1.096713 0.263858
-1.308041 -0.980491 0.233678
-1.307561 -0.980373 0.234209
-1.312259 -1.096578 0.264451
-1.255056 -1.091712 0.290750
-1.250463 -0.976287 0.257649
-0.002357 -1.142638 0.267276
0.000069 -1.027099 0.234140
0.002060 -1.159757 0.200538
0.004327 -1.042627 0.174235
-1.032503 -1.152381 0.071691
-1.028663 -1.032690 0.062612
-1.049560 -1.147281 -0.152307
-1.044448 -1.028109 -0.137988
-0.019635 -1.131834 -0.433045
-0.013609 -1.018752 -0.392847
-0.022092 -1.107339 -0.495883
-0.015861 -0.996864 -0.448979
-1.070056 -0.949718 -0.647999
-1.061953 -0.852314 -0.577847
-1.072970 -0.802456 -0.815134
-1.064557 -0.720581 -0.727345
-0.030677 -0.660689 -1.008482
-0.022572 -0.599873 -0.905021
-0.029183 -0.601402 -1.040821
-0.020918 -0.546749 -0.933993
-1.058737 -0.307174 -1.073996
-1.050234 -0.275384 -0.958285
0.002450 0.069967 -1.146636
0.005193 0.001624 -1.156064
0.010119 -0.010297 -1.036684
0.007366 0.050679 -1.028133
-1.249813 0.122101 -1.075918
-1.243231 0.102808 -0.957449
-1.307507 0.096425 -1.076684
-1.300783 0.080067 -0.957769
-1.301274 0.079535 -0.957816
-1.308000 0.095829 -1.076740
-1.300757 0.231138 -1.049846
-1.294779 0.200721 -0.933733
-1.294347 0.200163 -0.933903
-1.300329 0.230516 -1.050032
-1.245608 0.200569 -1.060325
-1.239463 0.173092 -0.943483
0.006241 0.148453 -1.131016
0.010779 0.120924 -1.014138
0.015377 0.214538 -1.113406
0.019712 0.179946 -0.998522
-1.007596 0.379640 -1.009519
-1.003350 0.327166 -0.901544
-1.009332 0.570910 -0.891826
-1.006025 0.498333 -0.796148
0.037530 0.734252 -0.758311
0.038481 0.642615 -0.680799
0.038398 0.776095 -0.705700
0.039261 0.679990 -0.633869
-1.002197 0.886493 -0.500845
-1.001017 0.777164 -0.451296
-1.004727 0.958179 -0.290033
-1.003611 0.841353 -0.262504
0.030634 0.995668 -0.036602
0.030797 0.875726 -0.033402
-0.985209 0.938019 -0.364917
0.051379 0.990999 -0.113711
0.051430 0.871540 -0.102353
-0.984058 0.823347 -0.329579
-0.984529 0.916446 -0.428775
-0.983196 0.804028 -0.386797
0.057730 0.820562 -0.642104
0.058535 0.719732 -0.576928
0.054911 0.681966 -0.816284
0.056081 0.595745 -0.732755
-0.992933 0.507149 -0.937441
-0.989321 0.441332 -0.837093
-0.992483 0.449295 -0.973210
-0.988383 0.389576 -0.869064
0.031742 0.288908 -1.088692
0.035792 0.246331 -0.976419
0.091645 0.105839 -1.143485
0.096286 0.082410 -1.025774
0.014087 -0.077863 -1.161813
0.019431 -0.081413 -1.041815
-1.027879 -0.168006 -1.104377
-1.020616 -0.150679 -0.985644
-1.051612 -0.178007 -0.979538
-1.059397 -0.198577 -1.097682
-1.027020 -0.209186 -0.975441
-1.035098 -0.233036 -1.093029
-0.008170 -0.532128 -1.074811
-0.000043 -0.484801 -0.964511
-0.013480 -0.727409 -0.967703
-0.005175 -0.659705 -0.868598
-1.053745 -0.858374 -0.761178
-1.045346 -0.770749 -0.679178
-1.052845 -0.902959 -0.710618
-1.044550 -0.810572 -0.634019
-0.006055 -1.075259 -0.567390
0.000511 -0.968165 -0.513187
0.002014 -1.156089 -0.359876
0.007763 -1.040525 -0.327446
-1.027844 -1.154684 -0.075597
-1.023011 -1.034815 -0.069374
-1.022548 -1.156156 -0.007668
-1.018259 -1.036130 -0.008532
0.013033 -1.174803 0.122736
0.015637 -1.056127 0.104433
0.085894 -1.133044 0.304151
0.088092 -1.018850 0.267017
0.021931 -1.059059 0.478513
0.023513 -0.952448 0.423276
-1.005716 -0.955915 0.618220
-1.003465 -0.858820 0.547570
-1.032286 -0.840393 0.571305
-1.034721 -0.935323 0.644782
-1.005476 -0.822478 0.594724
-1.008083 -0.915251 0.670987
0.031942 -0.756457 0.856469
0.034200 -0.683582 0.761062
0.029835 -0.566948 0.973617
0.032215 -0.514155 0.865799
-1.013942 -0.346395 1.025946
-1.010752 -0.320142 0.908860
-1.014665 -0.280114 1.038671
-1.011429 -0.261036 0.920193
0.023615 -0.033915 1.076439
0.026436 -0.042201 0.956708
0.022221 0.185668 1.039313
0.025343 0.154239 0.923491
-1.018056 0.395644 0.922681
-1.014175 0.339388 0.816695
-1.015195 0.454654 0.889068
-1.011474 0.392182 0.786602
0.015643 0.592310 0.823265
0.018130 0.515316 0.731200
0.086944 0.726138 0.693004
0.088986 0.635182 0.614717
0.022009 0.836497 0.539620
0.023663 0.734009 0.477166
-1.002878 0.906150 0.369197
-1.000763 0.795345 0.323136
-1.028819 0.806257 0.294489
-1.031060 0.918325 0.337200
-1.001248 0.816581 0.267733
-1.003568 0.929942 0.307142
0.044921 0.990452 0.108931
0.045667 0.871052 0.096921
0.136371 0.876355 0.000008
0.136136 0.996308 0.000009
0.056507 0.876173 -0.002471
0.056228 0.996175 -0.002201
-1.131607 -0.172251 -0.975242
-1.139278 -0.192892 -1.093517
-1.139177 -0.191469 -1.093767
-1.035172 -0.088540 -1.112415
-1.028540 -0.079301 -0.992748
-1.131515 -0.170971 -0.975466
-0.495016 0.982035 0.132817
-0.493474 0.863388 0.114845
-1.083575 0.941195 0.268138
-1.083627 0.825788 0.234675
-1.084311 0.780846 0.352292
-1.085025 0.889240 0.404125
-0.504641 0.836318 0.525796
-0.502958 0.733358 0.464135
0.035819 0.771213 0.635880
0.037640 0.675362 0.563670
-0.834403 0.745840 0.639331
-0.417029 0.749514 0.649883
-0.414523 0.655865 0.574829
-0.831512 0.652174 0.564275
-0.418227 0.697325 0.710509
-0.835395 0.693654 0.699967
-0.832401 0.605463 0.618588
-0.415598 0.609161 0.629130
0.033395 0.677486 0.744761
0.035543 0.591802 0.660738
-0.511489 0.589046 0.810558
-0.508675 0.512578 0.718073
-1.101134 0.362713 0.936511
-1.124327 0.427198 0.901285
-1.095518 0.488706 0.864524
-1.093830 0.420829 0.765451
-1.120369 0.369073 0.796342
-1.099289 0.312028 0.827593
-0.516151 0.219569 1.013944
-0.512637 0.183044 0.899637
0.030788 0.076886 1.063438
0.033741 0.056900 0.945155
-0.514116 -0.079909 1.065638
-0.511202 -0.082628 0.945660
-1.108930 -0.362706 1.019629
-1.110336 -0.265381 1.038331
-1.102226 -0.239643 0.920880
-1.109825 -0.326630 0.904621
-0.508853 -0.530985 0.978628
-0.506360 -0.483638 0.868325
0.038881 -0.664587 0.919907
0.041198 -0.601497 0.817825
-0.505999 -0.784501 0.819645
-0.503386 -0.707115 0.727836
-1.089114 -0.889066 0.699135
-1.088716 -0.800360 0.617987
-1.086252 -0.877331 0.518353
-1.086903 -0.978043 0.583984
-0.504725 -1.048561 0.483911
-0.503189 -0.942280 0.427996
0.035257 -1.107457 0.372637
0.037125 -0.995915 0.328189
-0.835197 -1.086200 0.358835
-0.417871 -1.103957 0.350746
-0.414321 -0.991227 0.309675
-0.831021 -0.973346 0.317774
-0.420409 -1.128763 0.274636
-0.837885 -1.110918 0.282706
-0.833432 -0.995503 0.249602
-0.416605 -1.013317 0.241556
0.031895 -1.151816 0.236006
0.034141 -1.035482 0.206345
-0.514164 -1.160472 0.134709
-0.511441 -1.041764 0.116901
-1.112156 -1.149049 -0.108058
-1.132793 -1.151858 -0.033861
-1.101525 -1.152129 0.036839
-1.099464 -1.032206 0.029624
-1.128042 -1.031923 -0.029776
-1.109192 -1.029543 -0.095489
-0.534078 -1.146466 -0.293240
-0.528389 -1.029606 -0.265847
0.005691 -1.121006 -0.466020
0.011854 -1.009193 -0.422446
-0.545778 -1.035696 -0.575553
-0.538708 -0.931109 -0.516657
-1.149085 -0.842980 -0.767723
-1.148147 -0.908494 -0.693329
-1.134722 -0.820415 -0.611749
-1.144525 -0.762105 -0.678077
-0.551896 -0.734408 -0.918219
-0.543865 -0.662639 -0.822019
-0.003366 -0.632768 -1.026344
0.004822 -0.575015 -0.921158
-0.544566 -0.459376 -1.063833
-0.535806 -0.415976 -0.951937
0.035880 0.037095 -1.152981
0.040733 0.021447 -1.033987
-0.832656 0.104290 -1.101324
-0.415186 0.086808 -1.125325
-0.409346 0.067528 -1.006840
-0.826221 0.085006 -0.982820
-0.411187 0.165272 -1.109683
-0.828453 0.182767 -1.085692
-0.822458 0.155285 -0.968864
-0.405763 0.137782 -0.992906
0.042636 0.177902 -1.124895
0.046960 0.146831 -1.008968
-0.494954 0.300905 -1.064170
-0.490543 0.257155 -0.952365
-1.074889 0.537595 -0.913888
-1.100521 0.476314 -0.953049
-1.074104 0.413639 -0.989758
-1.071892 0.359489 -0.882515
-1.096544 0.412215 -0.851585
-1.073436 0.466492 -0.816974
-0.484477 0.656958 -0.832652
-0.482700 0.574381 -0.745517
0.064544 0.755509 -0.732722
0.065469 0.661626 -0.658008
-0.480337 0.838735 -0.604308
-0.479344 0.735356 -0.543314
-1.080596 0.941493 -0.350207
-1.079841 0.909539 -0.443988
-1.073527 0.794685 -0.408109
-1.083251 0.823723 -0.324721
-0.485685 0.984387 -0.166327
-0.485368 0.865388 -0.150936
-0.467076 0.971876 -0.243141
-0.466634 0.854166 -0.219693
-1.011472 0.927350 -0.397223
-1.010232 0.813765 -0.358548
-0.463744 0.876449 -0.535659
-0.462429 0.769126 -0.481738
0.132451 0.723427 -0.772128
0.134096 0.785209 -0.694487
0.129969 0.692892 -0.617083
[...]
POINT_DATA 2428
SCALARS var1 float
LOOKUP_TABLE default
0.000000
0.000100
0.000200
0.000300
0.000400
0.000500
0.000600
0.000700
0.000800
0.000900
0.001000
0.001100
0.001200
0.001300
0.001400
0.001500
0.001600
0.001700
0.001800
0.001900
0.002000
0.002100
0.002200
0.002300
0.002400
0.002500
0.002600
0.002700
0.002800
0.002900
0.003000
0.003100
0.003200
0.003300
0.003400
0.003500
0.003600
0.003700
0.003800
0.003900
0.004000
0.004100
0.004200
0.004300
0.004400
0.004500
0.004600
0.004700
0.004800
0.004900
0.005000
0.005100
0.005200
0.005300
0.005400
0.005500
0.005600
0.005700
0.005800
0.005900
0.006000
0.006100
0.006200
0.006300
0.006400
0.006500
0.006600
0.006700
0.006800
0.006900
0.007000
0.007100
0.007200
0.007300
0.007400
0.007500
0.007600
0.007700
0.007800
0.007900
0.008000
0.008100
0.008200
0.008300
0.008400
0.008500
0.008600
0.008700
0.008800
0.008900
0.009000
0.009100
0.009200
0.009300
0.009400
0.009500
0.009600
0.009700
0.009800
0.009900
0.010000
0.010100
0.010200
0.010300
0.010400
0.010500
0.010600
0.010700
0.010800
0.010900
0.011000
0.011100
0.011200
0.011300
0.011400
0.011500
0.011600
0.011700
0.011800
0.011900
0.012000
0.012100
0.012200
0.012300
0.012400
0.012500
0.012600
0.012700
0.012800
0.012900
0.013000
0.013100
0.013200
0.013300
0.013400
0.013500
0.013600
0.013700
0.013800
0.013900
0.014000
0.014100
0.014200
0.014300
0.014400
0.014500
0.014600
0.014700
0.014800
0.014900
0.015000
0.015100
0.015200
0.015300
0.015400
0.015500
0.015600
0.015700
0.015800
0.015900
0.016000
0.016100
0.016200
0.016300
0.016400
0.016500
0.016600
0.016700
0.016800
0.016900
0.017000
0.017100
0.017200
0.017300
0.017400
0.017500
0.017600
0.017700
0.017800
0.017900
0.018000
0.018100
0.018200
0.018300
0.018400
0.018500
0.018600
0.018700
0.018800
0.018900
0.019000
0.019100
0.019200
0.019300
0.019400
0.019500
0.019600
0.019700
0.019800
0.019900
0.020000
0.020100
0.020200
0.020300
0.020400
0.020500
0.020600
0.020700
0.020800
0.020900
0.021000
0.021100
0.021200
0.021300
0.021400
0.021500
0.021600
0.021700
0.021800
0.021900
0.022000
0.022100
0.022200
0.022300
0.022400
0.022500
0.022600
0.022700
0.022800
0.022900
0.023000
0.023100
0.023200
0.023300
0.023400
0.023500
0.023600
0.023700
0.023800
0.023900
0.024000
0.024100
0.024200
0.024300
0.024400
0.024500
0.024600
0.024700
0.024800
0.024900
0.025000
0.025100
0.025200
0.025300
0.025400
0.025500
0.025600
0.025700
0.025800
0.025900
0.026000
0.026100
0.026200
0.026300
0.026400
0.026500
0.026600
0.026700
0.026800
0.026900
0.027000
0.027100
0.027200
0.027300
0.027400
0.027500
0.027600
0.027700
0.027800
0.027900
0.028000
0.028100
0.028200
0.028300
0.028400
0.028500
0.028600
0.028700
0.028800
0.028900
0.029000
0.029100
0.029200
0.029300
0.029400
0.029500
0.029600
0.029700
0.029800
0.029900
0.030000
0.030100
0.030200
0.030300
0.030400
0.030500
0.030600
0.030700
0.030800
0.030900
0.031000
0.031100
0.031200
0.031300
0.031400
0.031500
0.031600
0.031700
0.031800
0.031900
0.032000
0.032100
0.032200
0.032300
0.032400
0.032500
0.032600
0.032700
0.032800
0.032900
0.033000
0.033100
0.033200
0.033300
0.033400
0.033500
0.033600
0.033700
0.033800
0.033900
0.034000
0.034100
0.034200
0.034300
0.034400
0.034500
0.034600
0.034700
0.034800
0.034900
0.035000
0.035100
0.035200
0.035300
0.035400
0.035500
0.035600
0.035700
0.035800
0.035900
0.036000
0.036100
0.036200
0.036300
0.036400
0.036500
0.036600
0.036700
0.036800
0.036900
0.037000
0.037100
0.037200
0.037300
0.037400
0.037500
0.037600
0.037700
0.037800
0.037900
0.038000
0.038100
0.038200
0.038300
0.038400
0.038500
0.038600
0.038700
0.038800
0.038900
0.039000
0.039100
0.039200
0.039300
0.039400
0.039500
0.039600
0.039700
0.039800
0.039900
0.040000
0.040100
0.040200
0.040300
0.040400
0.040500
0.040600
0.040700
0.040800
0.040900
0.041000
0.041100
0.041200
0.041300
0.041400
0.041500
0.041600
0.041700
0.041800
0.041900
0.042000
0.042100
0.042200
0.042300
0.042400
0.042500
0.042600
0.042700
0.042800
0.042900
0.043000
0.043100
0.043200
0.043300
0.043400
0.043500
0.043600
0.043700
0.043800
0.043900
0.044000
0.044100
0.044200
0.044300
0.044400
0.044500
0.044600
0.044700
0.044800
0.044900
0.045000
0.045100
0.045200
0.045300
0.045400
0.045500
0.045600
0.045700
0.045800
0.045900
0.046000
0.046100
0.046200
0.046300
0.046400
0.046500
0.046600
0.046700
0.046800
0.046900
0.047000
0.047100
0.047200
0.047300
0.047400
0.047500
0.047600
0.047700
0.047800
0.047900
0.048000
0.048100
0.048200
0.048300
0.048400
0.048500
0.048600
0.048700
0.048800
0.048900
0.049000
0.049100
0.049200
0.049300
0.049400
0.049500
0.049600
0.049700
0.049800
0.049900
0.050000
0.050100
0.050200
0.050300
0.050400
0.050500
0.050600
0.050700
0.050800
0.050900
0.051000
0.051100
0.051200
0.051300
0.051400
0.051500
0.051600
0.051700
0.051800
0.051900
0.052000
0.052100
0.052200
0.052300
0.052400
0.052500
0.052600
0.052700
0.052800
0.052900
0.053000
0.053100
0.053200
0.053300
0.053400
0.053500
0.053600
0.053700
0.053800
0.053900
0.054000
0.054100
0.054200
0.054300
0.054400
0.054500
0.054600
0.054700
0.054800
0.054900
0.055000
0.055100
0.055200
0.055300
0.055400
0.055500
0.055600
0.055700
0.055800
0.055900
0.056000
0.056100
0.056200
0.056300
0.056400
0.056500
0.056600
0.056700
0.056800
0.056900
0.057000
0.057100
0.057200
0.057300
0.057400
0.057500
0.057600
0.057700
0.057800
0.057900
0.058000
0.058100
0.058200
0.058300
0.058400
0.058500
0.058600
0.058700
0.058800
0.058900
0.059000
0.059100
0.059200
0.059300
0.059400
0.059500
0.059600
0.059700
0.059800
0.059900
0.060000
0.060100
0.060200
0.060300
0.060400
0.060500
0.060600
0.060700
0.060800
0.060900
0.061000
0.061100
0.061200
0.061300
0.061400
0.061500
0.061600
0.061700
0.061800
0.061900
0.062000
0.062100
0.062200
0.062300
0.062400
0.062500
0.062600
0.062700
0.062800
0.062900
0.063000
0.063100
0.063200
0.063300
0.063400
0.063500
0.063600
0.063700
0.063800
0.063900
0.064000
0.064100
0.064200
0.064300
0.064400
0.064500
0.064600
0.064700
0.064800
0.064900
0.065000
0.065100
0.065200
0.065300
0.065400
0.065500
0.065600
0.065700
0.065800
0.065900
0.066000
0.066100
0.066200
0.066300
0.066400
0.066500
0.066600
0.066700
0.066800
0.066900
0.067000
0.067100
0.067200
0.067300
0.067400
0.067500
0.067600
0.067700
0.067800
0.067900
0.068000
0.068100
0.068200
0.068300
0.068400
0.068500
0.068600
0.068700
0.068800
0.068900
0.069000
0.069100
0.069200
0.069300
0.069400
0.069500
0.069600
0.069700
0.069800
0.069900
0.070000
0.070100
0.070200
0.070300
0.070400
0.070500
0.070600
0.070700
0.070800
0.070900
0.071000
0.071100
0.071200
0.071300
0.071400
0.071500
0.071600
0.071700
0.071800
0.071900
0.072000
0.072100
0.072200
0.072300
0.072400
0.072500
0.072600
0.072700
0.072800
0.072900
0.073000
0.073100
0.073200
0.073300
0.073400
0.073500
0.073600
0.073700
0.073800
0.073900
0.074000
0.074100
0.074200
0.074300
0.074400
0.074500
0.074600
0.074700
0.074800
0.074900
0.075000
0.075100
0.075200
0.075300
0.075400
0.075500
0.075600
0.075700
0.075800
0.075900
0.076000
0.076100
0.076200
0.076300
0.076400
0.076500
0.076600
0.076700
0.076800
0.076900
0.077000
0.077100
0.077200
0.077300
0.077400
0.077500
0.077600
0.077700
0.077800
0.077900
0.078000
0.078100
0.078200
0.078300
0.078400
0.078500
0.078600
0.078700
0.078800
0.078900
0.079000
0.079100
0.079200
0.079300
0.079400
0.079500
0.079600
0.079700
0.079800
0.079900
0.080000
0.080100
0.080200
0.080300
0.080400
0.080500
0.080600
0.080700
0.080800
0.080900
0.081000
0.081100
0.081200
0.081300
0.081400
0.081500
0.081600
0.081700
0.081800
0.081900
0.082000
0.082100
0.082200
0.082300
0.082400
0.082500
0.082600
0.082700
0.082800
0.082900
0.083000
0.083100
0.083200
0.083300
0.083400
0.083500
0.083600
0.083700
0.083800
0.083900
0.084000
0.084100
0.084200
0.084300
0.084400
0.084500
0.084600
0.084700
0.084800
0.084900
0.085000
0.085100
0.085200
0.085300
0.085400
0.085500
0.085600
0.085700
0.085800
0.085900
0.086000
0.086100
0.086200
0.086300
0.086400
0.086500
0.086600
0.086700
0.086800
0.086900
0.087000
0.087100
0.087200
0.087300
0.087400
0.087500
0.087600
0.087700
0.087800
0.087900
0.088000
0.088100
0.088200
0.088300
0.088400
0.088500
0.088600
0.088700
0.088800
0.088900
0.089000
0.089100
0.089200
0.089300
0.089400
0.089500
0.089600
0.089700
0.089800
0.089900
0.090000
0.090100
0.090200
0.090300
0.090400
0.090500
0.090600
0.090700
0.090800
0.090900
0.091000
0.091100
0.091200
0.091300
0.091400
0.091500
0.091600
0.091700
0.091800
0.091900
0.092000
0.092100
0.092200
0.092300
0.092400
0.092500
0.092600
0.092700
0.092800
0.092900
0.093000
0.093100
0.093200
0.093300
0.093400
0.093500
0.093600
0.093700
0.093800
0.093900
0.094000
0.094100
0.094200
0.094300
0.094400
0.094500
0.094600
0.094700
0.094800
0.094900
0.095000
0.095100
0.095200
0.095300
0.095400
0.095500
0.095600
0.095700
0.095800
0.095900
0.096000
0.096100
0.096200
0.096300
0.096400
0.096500
0.096600
0.096700
0.096800
0.096900
0.097000
0.097100
0.097200
0.097300
0.097400
0.097500
0.097600
0.097700
0.097800
0.097900
0.098000
0.098100
0.098200
0.098300
0.098400
0.098500
0.098600
0.098700
0.098800
0.098900
0.099000
0.099100
0.099200
0.099300
0.099400
0.099500
0.099600
0.099700
0.099800
0.099900
0.100000
0.100100
0.100200
0.100300
0.100400
0.100500
0.100600
0.100700
0.100800
0.100900
0.101000
0.101100
0.101200
0.101300
0.101400
0.101500
0.101600
0.101700
0.101800
0.101900
0.102000
0.102100
0.102200
0.102300
0.102400
0.102500
0.102600
0.102700
0.102800
0.102900
0.103000
0.103100
0.103200
0.103300
0.103400
0.103500
0.103600
0.103700
0.103800
0.103900
0.104000
0.104100
0.104200
0.104300
0.104400
0.104500
0.104600
0.104700
0.104800
0.104900
0.105000
0.105100
0.105200
0.105300
0.105400
0.105500
0.105600
0.105700
0.105800
0.105900
0.106000
0.106100
0.106200
0.106300
0.106400
0.106500
0.106600
0.106700
0.106800
0.106900
0.107000
0.107100
0.107200
0.107300
0.107400
0.107500
0.107600
0.107700
0.107800
0.107900
0.108000
0.108100
0.108200
0.108300
0.108400
0.108500
0.108600
0.108700
0.108800
0.108900
0.109000
0.109100
0.109200
0.109300
0.109400
0.109500
0.109600
0.109700
0.109800
0.109900
0.110000
0.110100
0.110200
0.110300
0.110400
0.110500
0.110600
0.110700
0.110800
0.110900
0.111000
0.111100
0.111200
0.111300
0.111400
0.111500
0.111600
0.111700
0.111800
0.111900
0.112000
0.112100
0.112200
0.112300
0.112400
0.112500
0.112600
0.112700
0.112800
0.112900
0.113000
0.113100
0.113200
0.113300
0.113400
0.113500
0.113600
0.113700
0.113800
0.113900
0.114000
0.114100
0.114200
0.114300
0.114400
0.114500
0.114600
0.114700
0.114800
0.114900
0.115000
0.115100
0.115200
0.115300
0.115400
0.115500
0.115600
0.115700
0.115800
0.115900
0.116000
0.116100
0.116200
0.116300
0.116400
0.116500
0.116600
0.116700
0.116800
0.116900
0.117000
0.117100
0.117200
0.117300
0.117400
0.117500
0.117600
0.117700
0.117800
0.117900
0.118000
0.118100
0.118200
0.118300
0.118400
0.118500
0.118600
0.118700
0.118800
0.118900
0.119000
0.119100
0.119200
0.119300
0.119400
0.119500
0.119600
0.119700
0.119800
0.119900
0.120000
0.120100
0.120200
0.120300
0.120400
0.120500
0.120600
0.120700
0.120800
0.120900
0.121000
0.121100
0.121200
0.121300
0.121400
0.121500
0.121600
0.121700
0.121800
0.121900
0.122000
0.122100
0.122200
0.122300
0.122400
0.122500
0.122600
0.122700
0.122800
0.122900
0.123000
0.123100
0.123200
0.123300
0.123400
0.123500
0.123600
0.123700
0.123800
0.123900
0.124000
0.124100
0.124200
0.124300
0.124400
0.124500
0.124600
0.124700
0.124800
0.124900
0.125000
0.125100
0.125200
0.125300
0.125400
0.125500
0.125600
0.125700
0.125800
0.125900
0.126000
0.126100
0.126200
0.126300
0.126400
0.126500
0.126600
0.126700
0.126800
0.126900
0.127000
0.127100
0.127200
0.127300
0.127400
0.127500
0.127600
0.127700
0.127800
0.127900
0.128000
0.128100
0.128200
0.128300
0.128400
0.128500
0.128600
0.128700
0.128800
0.128900
0.129000
0.129100
0.129200
0.129300
0.129400
0.129500
0.129600
0.129700
0.129800
0.129900
0.130000
0.130100
0.130200
0.130300
0.130400
0.130500
0.130600
0.130700
0.130800
0.130900
0.131000
0.131100
0.131200
0.131300
0.131400
0.131500
0.131600
0.131700
0.131800
0.131900
0.132000
0.132100
0.132200
0.132300
0.132400
0.132500
0.132600
0.132700
0.132800
0.132900
0.133000
0.133100
0.133200
0.133300
0.133400
0.133500
0.133600
0.133700
0.133800
0.133900
0.134000
0.134100
0.134200
0.134300
0.134400
0.134500
0.134600
0.134700
0.134800
0.134900
0.135000
0.135100
0.135200
0.135300
0.135400
0.135500
0.135600
0.135700
0.135800
0.135900
0.136000
0.136100
0.136200
0.136300
0.136400
0.136500
0.136600
0.136700
0.136800
0.136900
0.137000
0.137100
0.137200
0.137300
0.137400
0.137500
0.137600
0.137700
0.137800
0.137900
0.138000
0.138100
0.138200
0.138300
0.138400
0.138500
0.138600
0.138700
0.138800
0.138900
0.139000
0.139100
0.139200
0.139300
0.139400
0.139500
0.139600
0.139700
0.139800
0.139900
0.140000
0.140100
0.140200
0.140300
0.140400
0.140500
0.140600
0.140700
0.140800
0.140900
0.141000
0.141100
0.141200
0.141300
0.141400
0.141500
0.141600
0.141700
0.141800
0.141900
0.142000
0.142100
0.142200
0.142300
0.142400
0.142500
0.142600
0.142700
0.142800
0.142900
0.143000
0.143100
0.143200
0.143300
0.143400
0.143500
0.143600
0.143700
0.143800
0.143900
0.144000
0.144100
0.144200
0.144300
0.144400
0.144500
0.144600
0.144700
0.144800
0.144900
0.145000
0.145100
0.145200
0.145300
0.145400
0.145500
0.145600
0.145700
0.145800
0.145900
0.146000
0.146100
0.146200
0.146300
0.146400
0.146500
0.146600
0.146700
0.146800
0.146900
0.147000
0.147100
0.147200
0.147300
0.147400
0.147500
0.147600
0.147700
0.147800
0.147900
0.148000
0.148100
0.148200
0.148300
0.148400
0.148500
0.148600
0.148700
0.148800
0.148900
0.149000
0.149100
0.149200
0.149300
0.149400
0.149500
0.149600
0.149700
0.149800
0.149900
0.150000
0.150100
0.150200
0.150300
0.150400
0.150500
0.150600
0.150700
0.150800
0.150900
0.151000
0.151100
0.151200
0.151300
0.151400
0.151500
0.151600
0.151700
0.151800
0.151900
0.152000
0.152100
0.152200
0.152300
0.152400
0.152500
0.152600
0.152700
0.152800
0.152900
0.153000
0.153100
0.153200
0.153300
0.153400
0.153500
0.153600
0.153700
0.153800
0.153900
0.154000
0.154100
0.154200
0.154300
0.154400
0.154500
0.154600
0.154700
0.154800
0.154900
0.155000
0.155100
0.155200
0.155300
0.155400
0.155500
0.155600
0.155700
0.155800
0.155900
0.156000
0.156100
0.156200
0.156300
0.156400
0.156500
0.156600
0.156700
0.156800
0.156900
0.157000
0.157100
0.157200
0.157300
0.157400
0.157500
0.157600
0.157700
0.157800
0.157900
0.158000
0.158100
0.158200
0.158300
0.158400
0.158500
0.158600
0.158700
0.158800
0.158900
0.159000
0.159100
0.159200
0.159300
0.159400
0.159500
0.159600
0.159700
0.159800
0.159900
0.160000
0.160100
0.160200
0.160300
0.160400
0.160500
0.160600
0.160700
0.160800
0.160900
0.161000
0.161100
0.161200
0.161300
0.161400
0.161500
0.161600
0.161700
0.161800
0.161900
0.162000
0.162100
0.162200
0.162300
0.162400
0.162500
0.162600
0.162700
0.162800
0.162900
0.163000
0.163100
0.163200
0.163300
0.163400
0.163500
0.163600
0.163700
0.163800
0.163900
0.164000
0.164100
0.164200
0.164300
0.164400
0.164500
0.164600
0.164700
0.164800
0.164900
0.165000
0.165100
0.165200
0.165300
0.165400
0.165500
0.165600
0.165700
0.165800
0.165900
0.166000
0.166100
0.166200
0.166300
0.166400
0.166500
0.166600
0.166700
0.166800
0.166900
0.167000
0.167100
0.167200
0.167300
0.167400
0.167500
0.167600
0.167700
0.167800
0.167900
0.168000
0.168100
0.168200
0.168300
0.168400
0.168500
0.168600
0.168700
0.168800
0.168900
0.169000
0.169100
0.169200
0.169300
0.169400
0.169500
0.169600
0.169700
0.169800
0.169900
0.170000
0.170100
0.170200
0.170300
0.170400
0.170500
0.170600
0.170700
0.170800
0.170900
0.171000
0.171100
0.171200
0.171300
0.171400
0.171500
0.171600
0.171700
0.171800
0.171900
0.172000
0.172100
0.172200
0.172300
0.172400
0.172500
0.172600
0.172700
0.172800
0.172900
0.173000
0.173100
0.173200
0.173300
0.173400
0.173500
0.173600
0.173700
0.173800
0.173900
0.174000
0.174100
0.174200
0.174300
0.174400
0.174500
0.174600
0.174700
0.174800
0.174900
0.175000
0.175100
0.175200
0.175300
0.175400
0.175500
0.175600
0.175700
0.175800
0.175900
0.176000
0.176100
0.176200
0.176300
0.176400
0.176500
0.176600
0.176700
0.176800
0.176900
0.177000
0.177100
0.177200
0.177300
0.177400
0.177500
0.177600
0.177700
0.177800
0.177900
0.178000
0.178100
0.178200
0.178300
0.178400
0.178500
0.178600
0.178700
0.178800
0.178900
0.179000
0.179100
0.179200
0.179300
0.179400
0.179500
0.179600
0.179700
0.179800
0.179900
0.180000
0.180100
0.180200
0.180300
0.180400
0.180500
0.180600
0.180700
0.180800
0.180900
0.181000
0.181100
0.181200
0.181300
0.181400
0.181500
0.181600
0.181700
0.181800
0.181900
0.182000
0.182100
0.182200
0.182300
0.182400
0.182500
0.182600
0.182700
0.182800
0.182900
0.183000
0.183100
0.183200
0.183300
0.183400
0.183500
0.183600
0.183700
0.183800
0.183900
0.184000
0.184100
0.184200
0.184300
0.184400
0.184500
0.184600
0.184700
0.184800
0.184900
0.185000
0.185100
0.185200
0.185300
0.185400
0.185500
0.185600
0.185700
0.185800
0.185900
0.186000
0.186100
0.186200
0.186300
0.186400
0.186500
0.186600
0.186700
0.186800
0.186900
0.187000
0.187100
0.187200
0.187300
0.187400
0.187500
0.187600
0.187700
0.187800
0.187900
0.188000
0.188100
0.188200
0.188300
0.188400
0.188500
0.188600
0.188700
0.188800
0.188900
0.189000
0.189100
0.189200
0.189300
0.189400
0.189500
0.189600
0.189700
0.189800
0.189900
0.190000
0.190100
0.190200
0.190300
0.190400
0.190500
0.190600
0.190700
0.190800
0.190900
0.191000
0.191100
0.191200
0.191300
0.191400
0.191500
0.191600
0.191700
0.191800
0.191900
0.192000
0.192100
0.192200
0.192300
0.192400
0.192500
0.192600
0.192700
0.192800
0.192900
0.193000
0.193100
0.193200
0.193300
0.193400
0.193500
0.193600
0.193700
0.193800
0.193900
0.194000
0.194100
0.194200
0.194300
0.194400
0.194500
0.194600
0.194700
0.194800
0.194900
0.195000
0.195100
0.195200
0.195300
0.195400
0.195500
0.195600
0.195700
0.195800
0.195900
0.196000
0.196100
0.196200
0.196300
0.196400
0.196500
0.196600
0.196700
0.196800
0.196900
0.197000
0.197100
0.197200
0.197300
0.197400
0.197500
0.197600
0.197700
0.197800
0.197900
0.198000
0.198100
0.198200
0.198300
0.198400
0.198500
0.198600
0.198700
0.198800
0.198900
0.199000
0.199100
0.199200
0.199300
0.199400
0.199500
0.199600
0.199700
0.199800
0.199900
0.200000
0.200100
0.200200
0.200300
0.200400
0.200500
0.200600
0.200700
0.200800
0.200900
0.201000
0.201100
0.201200
0.201300
0.201400
0.201500
0.201600
0.201700
0.201800
0.201900
0.202000
0.202100
0.202200
0.202300
0.202400
0.202500
0.202600
0.202700
0.202800
0.202900
0.203000
0.203100
0.203200
0.203300
0.203400
0.203500
0.203600
0.203700
0.203800
0.203900
0.204000
0.204100
0.204200
0.204300
0.204400
0.204500
0.204600
0.204700
0.204800
0.204900
0.205000
0.205100
0.205200
0.205300
0.205400
0.205500
0.205600
0.205700
0.205800
0.205900
0.206000
0.206100
0.206200
0.206300
0.206400
0.206500
0.206600
0.206700
0.206800
0.206900
0.207000
0.207100
0.207200
0.207300
0.207400
0.207500
0.207600
0.207700
0.207800
0.207900
0.208000
0.208100
0.208200
0.208300
0.208400
0.208500
0.208600
0.208700
0.208800
0.208900
0.209000
0.209100
0.209200
0.209300
0.209400
0.209500
0.209600
0.209700
0.209800
0.209900
0.210000
0.210100
0.210200
0.210300
0.210400
0.210500
0.210600
0.210700
0.210800
0.210900
0.211000
0.211100
0.211200
0.211300
0.211400
0.211500
0.211600
0.211700
0.211800
0.211900
0.212000
0.212100
0.212200
0.212300
0.212400
0.212500
0.212600
0.212700
0.212800
0.212900
0.213000
0.213100
0.213200
0.213300
0.213400
0.213500
0.213600
0.213700
0.213800
0.213900
0.214000
0.214100
0.214200
0.214300
0.214400
0.214500
0.214600
0.214700
0.214800
0.214900
0.215000
0.215100
0.215200
0.215300
0.215400
0.215500
0.215600
0.215700
0.215800
0.215900
0.216000
0.216100
0.216200
0.216300
0.216400
0.216500
0.216600
0.216700
0.216800
0.216900
0.217000
0.217100
0.217200
0.217300
0.217400
0.217500
0.217600
0.217700
0.217800
0.217900
0.218000
0.218100
0.218200
0.218300
0.218400
0.218500
0.218600
0.218700
0.218800
0.218900
0.219000
0.219100
0.219200
0.219300
0.219400
0.219500
0.219600
0.219700
0.219800
0.219900
0.220000
0.220100
0.220200
0.220300
0.220400
0.220500
0.220600
0.220700
0.220800
0.220900
0.221000
0.221100
0.221200
0.221300
0.221400
0.221500