# vtk DataFile Version 2.0
Generated Volume Mesh
ASCII
DATASET UNSTRUCTURED_GRID
POINTS 2428 float
-1.020889 0.973596 0.239274
0.025990 1.015429 0.031141
0.026420 0.895499 0.027318
-1.019083 0.857771 0.207831
-1.111496 0.939039 0.341454
-1.109502 0.826271 0.300190
-1.111540 0.938527 0.342809
-1.016281 0.786968 0.394422
-1.018243 0.894454 0.447802
0.007348 0.813113 0.611184
0.008850 0.715021 0.542060
0.000311 0.771565 0.666275
0.002080 0.677800 0.591362
-1.251546 0.762406 0.638958
-1.248926 0.668633 0.564066
-1.307544 0.779234 0.615336
-1.304929 0.683647 0.542782
-1.305386 0.683979 0.542328
-1.308000 0.779605 0.614831
-1.309338 0.689846 0.719546
-1.306609 0.603580 0.636118
-1.306142 0.603972 0.635728
-1.308870 0.690283 0.719109
-1.252338 0.710348 0.699683
-1.249636 0.622006 0.618460
-0.000846 0.719499 0.726989
0.001045 0.631170 0.645739
0.004099 0.671230 0.776513
0.006077 0.587956 0.690119
-1.026711 0.539834 0.856799
-1.023614 0.470430 0.758898
-1.035789 0.345038 0.967910
-1.032414 0.295992 0.858386
0.004542 0.125763 1.065645
0.007163 0.102114 0.948007
0.004962 0.059226 1.077005
0.007446 0.042708 0.958162
-1.033191 -0.188306 1.060647
-1.030357 -0.177492 0.941123
-1.031053 -0.407158 1.019012
-1.028372 -0.373226 0.903876
0.011532 -0.623957 0.946456
0.013498 -0.564411 0.842233
0.012055 -0.681485 0.911170
0.014084 -0.615689 0.810778
-1.026657 -0.855973 0.741028
-1.024421 -0.768987 0.658249
-1.114718 -0.926618 0.656836
-1.112544 -0.832840 0.581766
-1.114728 -0.927511 0.655695
-1.017255 -0.891922 0.500931
-1.019161 -0.993312 0.565265
0.007067 -1.085569 0.418703
0.008543 -0.975650 0.370432
-0.000390 -1.111102 0.354783
0.001543 -0.998514 0.313190
-1.252180 -1.066856 0.375227
-1.248430 -0.954219 0.333670
-1.307557 -1.054416 0.402701
-1.303914 -0.942838 0.358370
-1.304359 -0.942613 0.358896
-1.308000 -1.054167 0.403287
-1.312129 -1.097398 0.272241
-1.308036 -0.981335 0.241529
-1.307558 -0.981211 0.242059
-1.311649 -1.097257 0.272835
-1.254565 -1.091926 0.299235
-1.250565 -0.976674 0.265605
-0.002053 -1.136272 0.278794
0.000060 -1.020921 0.245134
0.002571 -1.153703 0.212065
0.004545 -1.036702 0.185254
-1.030856 -1.151344 0.077135
-1.027512 -1.031689 0.067694
-1.046722 -1.146942 -0.146937
-1.042270 -1.027735 -0.132975
-0.016013 -1.126680 -0.423707
-0.010765 -1.013487 -0.383838
-0.018152 -1.102351 -0.486677
-0.012726 -0.991741 -0.440108
-1.064569 -0.949572 -0.648275
-1.057513 -0.851964 -0.578422
-1.067107 -0.802827 -0.815885
-1.059781 -0.720673 -0.728370
-0.025628 -0.653386 -1.004609
-0.018570 -0.592283 -0.901324
-0.024328 -0.594157 -1.037160
-0.017131 -0.539213 -0.930484
-1.054713 -0.307319 -1.078377
-1.047308 -0.275480 -0.962680
0.002133 0.081501 -1.145639
0.005299 0.013066 -1.154823
0.009588 0.001469 -1.035411
0.006415 0.062558 -1.027092
-1.249999 0.126899 -1.084059
-1.244268 0.107952 -0.965541
-1.307510 0.100904 -1.085188
-1.301656 0.084891 -0.966234
-1.302143 0.084357 -0.966284
-1.308000 0.100305 -1.085246
-1.301693 0.235682 -1.058748
-1.296487 0.205605 -0.942554
-1.296051 0.205049 -0.942718
-1.301260 0.235063 -1.058928
-1.246338 0.205407 -1.068694
-1.240987 0.178272 -0.951779
0.005434 0.160025 -1.130251
0.009386 0.132844 -1.013305
0.014167 0.226293 -1.112795
0.017942 0.192051 -0.997807
-1.009167 0.391780 -1.014484
-1.005470 0.339701 -0.906332
-1.011691 0.583485 -0.897524
-1.008811 0.511276 -0.801589
0.033766 0.750294 -0.759210
0.034594 0.658923 -0.681395
0.034521 0.792376 -0.706674
0.035274 0.696526 -0.634508
-1.005478 0.905982 -0.500274
-1.004451 0.796793 -0.450435
-1.007681 0.978263 -0.289636
-1.006710 0.861517 -0.261795
0.027761 1.015543 -0.036263
0.027903 0.895601 -0.033018
-0.988205 0.957878 -0.364470
0.048305 1.010843 -0.113420
0.048350 0.891387 -0.102027
-0.987203 0.843303 -0.328825
-0.987613 0.936088 -0.428326
-0.986452 0.823790 -0.386038
0.053836 0.837051 -0.643219
0.054537 0.736465 -0.577691
0.051381 0.697838 -0.816951
0.052400 0.611907 -0.733140
-0.994931 0.519605 -0.942796
-0.991786 0.454154 -0.842216
-0.994231 0.461563 -0.978359
-0.990661 0.402223 -0.874010
0.030194 0.300770 -1.088235
0.033720 0.258561 -0.975838
0.091068 0.117843 -1.142091
0.095109 0.094761 -1.024317
0.014820 -0.066323 -1.160279
0.019473 -0.069568 -1.040282
-1.025054 -0.167857 -1.108699
-1.018729 -0.150519 -0.989967
-1.049464 -0.178172 -0.984026
-1.056244 -0.198783 -1.102174
-1.024614 -0.209102 -0.979734
-1.031648 -0.233009 -1.097312
-0.003549 -0.524845 -1.071214
0.003528 -0.477219 -0.961050
-0.008173 -0.719839 -0.963543
-0.000941 -0.651866 -0.864630
-1.047886 -0.858440 -0.761636
-1.040572 -0.770558 -0.679921
-1.047102 -0.902906 -0.710883
-1.039879 -0.810288 -0.634572
-0.001708 -1.070399 -0.558138
0.004010 -0.963152 -0.504254
0.005319 -1.150626 -0.350364
0.010325 -1.034976 -0.318265
-1.025332 -1.154017 -0.070126
-1.021123 -1.034137 -0.064258
-1.020411 -1.155291 -0.002130
-1.016677 -1.035276 -0.003357
0.013902 -1.169031 0.134381
0.016169 -1.050452 0.115573
0.086060 -1.126231 0.315789
0.087974 -1.012227 0.278138
0.021650 -1.051636 0.489694
0.023028 -0.945296 0.433976
-1.005754 -0.948945 0.630519
-1.003795 -0.852235 0.559379
-1.032635 -0.833720 0.583075
-1.034756 -0.928257 0.657030
-1.005854 -0.815603 0.606379
-1.008123 -0.907969 0.683099
0.031380 -0.745135 0.866681
0.033346 -0.672658 0.770988
0.029546 -0.555166 0.983095
0.031618 -0.502780 0.875092
-1.013226 -0.331722 1.038897
-1.010448 -0.305722 0.921756
-1.013856 -0.265359 1.051501
-1.011037 -0.246509 0.932989
0.024128 -0.017974 1.085493
0.026586 -0.026396 0.965775
0.022915 0.201602 1.048150
0.025634 0.170068 0.932358
-1.016808 0.415066 0.934239
-1.013428 0.358718 0.828301
-1.014009 0.474107 0.900540
-1.010768 0.411547 0.798130
0.016174 0.612608 0.829599
0.018340 0.535458 0.737669
0.086974 0.746221 0.698878
0.088752 0.655131 0.620750
0.021719 0.856350 0.545469
0.023159 0.753755 0.483199
-1.003284 0.927167 0.376332
-1.001442 0.816269 0.330501
-1.029616 0.827159 0.301904
-1.031568 0.939319 0.344393
-1.002172 0.837411 0.274969
-1.004192 0.950844 0.314160
0.042682 1.010367 0.109258
0.043332 0.890962 0.097297
0.133604 0.896206 0.000008
0.133400 1.016166 0.000009
0.053728 0.896048 -0.002152
0.053486 1.016050 -0.001916
-1.129460 -0.173242 -0.980271
-1.136140 -0.193924 -1.098530
-1.136052 -0.192501 -1.098781
-1.033181 -0.088540 -1.116831
-1.027406 -0.079301 -0.997166
-1.129380 -0.171962 -0.980495
-0.496900 1.002264 0.136518
-0.495557 0.883597 0.118692
-1.084378 0.962105 0.275524
-1.084697 0.846648 0.242304
-1.084917 0.801937 0.359985
-1.085314 0.910429 0.411568
-0.504929 0.856888 0.532245
-0.503464 0.753808 0.470790
0.035699 0.791217 0.641823
0.037281 0.695242 0.569782
-0.834373 0.766626 0.648121
-0.417036 0.769826 0.657310
-0.414854 0.676052 0.582416
-0.831856 0.672838 0.573226
-0.418079 0.717743 0.718025
-0.835237 0.714547 0.708844
-0.832630 0.626218 0.627617
-0.415790 0.629438 0.636797
0.033589 0.697664 0.750885
0.035455 0.611838 0.667009
-0.510892 0.608719 0.819425
-0.508442 0.532137 0.727036
-1.099886 0.382305 0.948403
-1.123114 0.446780 0.913231
-1.094399 0.508210 0.876307
-1.093184 0.440254 0.777296
-1.119655 0.388569 0.808329
-1.098552 0.331531 0.839543
-0.515305 0.237350 1.024173
-0.512244 0.200728 0.909898
0.031332 0.092815 1.072354
0.033904 0.072712 0.954086
-0.513532 -0.064522 1.076450
-0.510995 -0.067417 0.956480
-1.108248 -0.347918 1.032972
-1.109518 -0.250590 1.051472
-1.101831 -0.225086 0.933964
-1.109554 -0.312086 0.917914
-0.508949 -0.517869 0.990019
-0.506779 -0.470849 0.879586
0.038380 -0.653012 0.929730
0.040397 -0.590321 0.827410
-0.506464 -0.774763 0.830715
-0.504189 -0.697816 0.738563
-1.089202 -0.881852 0.711211
-1.089128 -0.793593 0.629631
-1.086607 -0.871047 0.530412
-1.086949 -0.971381 0.596553
-0.505002 -1.041813 0.495588
-0.503665 -0.935832 0.439155
0.035209 -1.100491 0.384058
0.036832 -0.989172 0.339101
-0.835064 -1.083584 0.368231
-0.417769 -1.099047 0.361187
-0.414678 -0.986511 0.319605
-0.831428 -0.970940 0.326657
-0.419979 -1.124190 0.285203
-0.837405 -1.108651 0.292230
-0.833528 -0.993407 0.258598
-0.416667 -1.008919 0.251591
0.032283 -1.145490 0.247619
0.034235 -1.029307 0.217435
-0.513222 -1.156800 0.143455
-0.510851 -1.038167 0.125219
-1.109485 -1.148904 -0.102990
-1.130486 -1.151616 -0.028923
-1.099630 -1.151532 0.041912
-1.098091 -1.031647 0.034335
-1.126337 -1.031673 -0.025187
-1.107175 -1.029383 -0.090786
-0.530915 -1.143726 -0.286003
-0.525961 -1.026794 -0.258950
0.009478 -1.115813 -0.456569
0.014844 -1.003875 -0.413328
-0.541104 -1.033014 -0.571053
-0.534947 -0.928257 -0.512477
-1.143215 -0.843672 -0.768850
-1.142443 -0.908928 -0.694283
-1.130128 -0.820582 -0.612949
-1.139771 -0.762543 -0.679506
-0.546431 -0.731142 -0.916553
-0.539437 -0.659086 -0.820577
0.001592 -0.625304 -1.022414
0.008722 -0.567261 -0.917391
-0.540048 -0.455512 -1.064215
-0.532420 -0.411929 -0.952395
0.035752 0.048776 -1.151679
0.039973 0.033471 -1.032647
-0.832852 0.111389 -1.106182
-0.415432 0.096166 -1.127082
-0.410346 0.077230 -1.008551
-0.827248 0.092450 -0.987634
-0.411949 0.174671 -1.111675
-0.829192 0.189905 -1.090784
-0.823971 0.162766 -0.973881
-0.407226 0.147524 -0.994818
0.041636 0.189699 -1.124010
0.045397 0.158974 -1.007997
-0.496494 0.312512 -1.066419
-0.492653 0.269146 -0.954479
-1.077032 0.549996 -0.919810
-1.102384 0.488576 -0.958868
-1.075752 0.425811 -0.995193
-1.074081 0.372050 -0.887773
-1.098909 0.424852 -0.857177
-1.076039 0.479262 -0.822661
-0.487723 0.671315 -0.835654
-0.486175 0.589052 -0.748239
0.060727 0.771676 -0.733607
0.061532 0.678051 -0.658576
-0.484117 0.856439 -0.604862
-0.483253 0.753262 -0.543544
-1.083575 0.961531 -0.349723
-1.082963 0.929336 -0.443387
-1.076840 0.814583 -0.407204
-1.086414 0.843858 -0.323901
-0.488775 1.004312 -0.165699
-0.488499 0.885338 -0.150120
-0.470090 0.991675 -0.242468
-0.469705 0.874005 -0.218842
-1.014512 0.947146 -0.396748
-1.013432 0.833668 -0.357764
-0.467188 0.894298 -0.536396
-0.466044 0.787164 -0.482144
0.128730 0.739503 -0.772754
0.130208 0.801515 -0.695365
0.125990 0.709486 -0.617660
[...]
POINT_DATA 2428
SCALARS var1 float
LOOKUP_TABLE default
0.000000
0.000100
0.000200
0.000300
0.000400
0.000500
0.000600
0.000700
0.000800
0.000900
0.001000
0.001100
0.001200
0.001300
0.001400
0.001500
0.001600
0.001700
0.001800
0.001900
0.002000
0.002100
0.002200
0.002300
0.002400
0.002500
0.002600
0.002700
0.002800
0.002900
0.003000
0.003100
0.003200
0.003300
0.003400
0.003500
0.003600
0.003700
0.003800
0.003900
0.004000
0.004100
0.004200
0.004300
0.004400
0.004500
0.004600
0.004700
0.004800
0.004900
0.005000
0.005100
0.005200
0.005300
0.005400
0.005500
0.005600
0.005700
0.005800
0.005900
0.006000
0.006100
0.006200
0.006300
0.006400
0.006500
0.006600
0.006700
0.006800
0.006900
0.007000
0.007100
0.007200
0.007300
0.007400
0.007500
0.007600
0.007700
0.007800
0.007900
0.008000
0.008100
0.008200
0.008300
0.008400
0.008500
0.008600
0.008700
0.008800
0.008900
0.009000
0.009100
0.009200
0.009300
0.009400
0.009500
0.009600
0.009700
0.009800
0.009900
0.010000
0.010100
0.010200
0.010300
0.010400
0.010500
0.010600
0.010700
0.010800
0.010900
0.011000
0.011100
0.011200
0.011300
0.011400
0.011500
0.011600
0.011700
0.011800
0.011900
0.012000
0.012100
0.012200
0.012300
0.012400
0.012500
0.012600
0.012700
0.012800
0.012900
0.013000
0.013100
0.013200
0.013300
0.013400
0.013500
0.013600
0.013700
0.013800
0.013900
0.014000
0.014100
0.014200
0.014300
0.014400
0.014500
0.014600
0.014700
0.014800
0.014900
0.015000
0.015100
0.015200
0.015300
0.015400
0.015500
0.015600
0.015700
0.015800
0.015900
0.016000
0.016100
0.016200
0.016300
0.016400
0.016500
0.016600
0.016700
0.016800
0.016900
0.017000
0.017100
0.017200
0.017300
0.017400
0.017500
0.017600
0.017700
0.017800
0.017900
0.018000
0.018100
0.018200
0.018300
0.018400
0.018500
0.018600
0.018700
0.018800
0.018900
0.019000
0.019100
0.019200
0.019300
0.019400
0.019500
0.019600
0.019700
0.019800
0.019900
0.020000
0.020100
0.020200
0.020300
0.020400
0.020500
0.020600
0.020700
0.020800
0.020900
0.021000
0.021100
0.021200
0.021300
0.021400
0.021500
0.021600
0.021700
0.021800
0.021900
0.022000
0.022100
0.022200
0.022300
0.022400
0.022500
0.022600
0.022700
0.022800
0.022900
0.023000
0.023100
0.023200
0.023300
0.023400
0.023500
0.023600
0.023700
0.023800
0.023900
0.024000
0.024100
0.024200
0.024300
0.024400
0.024500
0.024600
0.024700
0.024800
0.024900
0.025000
0.025100
0.025200
0.025300
0.025400
0.025500
0.025600
0.025700
0.025800
0.025900
0.026000
0.026100
0.026200
0.026300
0.026400
0.026500
0.026600
0.026700
0.026800
0.026900
0.027000
0.027100
0.027200
0.027300
0.027400
0.027500
0.027600
0.027700
0.027800
0.027900
0.028000
0.028100
0.028200
0.028300
0.028400
0.028500
0.028600
0.028700
0.028800
0.028900
0.029000
0.029100
0.029200
0.029300
0.029400
0.029500
0.029600
0.029700
0.029800
0.029900
0.030000
0.030100
0.030200
0.030300
0.030400
0.030500
0.030600
0.030700
0.030800
0.030900
0.031000
0.031100
0.031200
0.031300
0.031400
0.031500
0.031600
0.031700
0.031800
0.031900
0.032000
0.032100
0.032200
0.032300
0.032400
0.032500
0.032600
0.032700
0.032800
0.032900
0.033000
0.033100
0.033200
0.033300
0.033400
0.033500
0.033600
0.033700
0.033800
0.033900
0.034000
0.034100
0.034200
0.034300
0.034400
0.034500
0.034600
0.034700
0.034800
0.034900
0.035000
0.035100
0.035200
0.035300
0.035400
0.035500
0.035600
0.035700
0.035800
0.035900
0.036000
0.036100
0.036200
0.036300
0.036400
0.036500
0.036600
0.036700
0.036800
0.036900
0.037000
0.037100
0.037200
0.037300
0.037400
0.037500
0.037600
0.037700
0.037800
0.037900
0.038000
0.038100
0.038200
0.038300
0.038400
0.038500
0.038600
0.038700
0.038800
0.038900
0.039000
0.039100
0.039200
0.039300
0.039400
0.039500
0.039600
0.039700
0.039800
0.039900
0.040000
0.040100
0.040200
0.040300
0.040400
0.040500
0.040600
0.040700
0.040800
0.040900
0.041000
0.041100
0.041200
0.041300
0.041400
0.041500
0.041600
0.041700
0.041800
0.041900
0.042000
0.042100
0.042200
0.042300
0.042400
0.042500
0.042600
0.042700
0.042800
0.042900
0.043000
0.043100
0.043200
0.043300
0.043400
0.043500
0.043600
0.043700
0.043800
0.043900
0.044000
0.044100
0.044200
0.044300
0.044400
0.044500
0.044600
0.044700
0.044800
0.044900
0.045000
0.045100
0.045200
0.045300
0.045400
0.045500
0.045600
0.045700
0.045800
0.045900
0.046000
0.046100
0.046200
0.046300
0.046400
0.046500
0.046600
0.046700
0.046800
0.046900
0.047000
0.047100
0.047200
0.047300
0.047400
0.047500
0.047600
0.047700
0.047800
0.047900
0.048000
0.048100
0.048200
0.048300
0.048400
0.048500
0.048600
0.048700
0.048800
0.048900
0.049000
0.049100
0.049200
0.049300
0.049400
0.049500
0.049600
0.049700
0.049800
0.049900
0.050000
0.050100
0.050200
0.050300
0.050400
0.050500
0.050600
0.050700
0.050800
0.050900
0.051000
0.051100
0.051200
0.051300
0.051400
0.051500
0.051600
0.051700
0.051800
0.051900
0.052000
0.052100
0.052200
0.052300
0.052400
0.052500
0.052600
0.052700
0.052800
0.052900
0.053000
0.053100
0.053200
0.053300
0.053400
0.053500
0.053600
0.053700
0.053800
0.053900
0.054000
0.054100
0.054200
0.054300
0.054400
0.054500
0.054600
0.054700
0.054800
0.054900
0.055000
0.055100
0.055200
0.055300
0.055400
0.055500
0.055600
0.055700
0.055800
0.055900
0.056000
0.056100
0.056200
0.056300
0.056400
0.056500
0.056600
0.056700
0.056800
0.056900
0.057000
0.057100
0.057200
0.057300
0.057400
0.057500
0.057600
0.057700
0.057800
0.057900
0.058000
0.058100
0.058200
0.058300
0.058400
0.058500
0.058600
0.058700
0.058800
0.058900
0.059000
0.059100
0.059200
0.059300
0.059400
0.059500
0.059600
0.059700
0.059800
0.059900
0.060000
0.060100
0.060200
0.060300
0.060400
0.060500
0.060600
0.060700
0.060800
0.060900
0.061000
0.061100
0.061200
0.061300
0.061400
0.061500
0.061600
0.061700
0.061800
0.061900
0.062000
0.062100
0.062200
0.062300
0.062400
0.062500
0.062600
0.062700
0.062800
0.062900
0.063000
0.063100
0.063200
0.063300
0.063400
0.063500
0.063600
0.063700
0.063800
0.063900
0.064000
0.064100
0.064200
0.064300
0.064400
0.064500
0.064600
0.064700
0.064800
0.064900
0.065000
0.065100
0.065200
0.065300
0.065400
0.065500
0.065600
0.065700
0.065800
0.065900
0.066000
0.066100
0.066200
0.066300
0.066400
0.066500
0.066600
0.066700
0.066800
0.066900
0.067000
0.067100
0.067200
0.067300
0.067400
0.067500
0.067600
0.067700
0.067800
0.067900
0.068000
0.068100
0.068200
0.068300
0.068400
0.068500
0.068600
0.068700
0.068800
0.068900
0.069000
0.069100
0.069200
0.069300
0.069400
0.069500
0.069600
0.069700
0.069800
0.069900
0.070000
0.070100
0.070200
0.070300
0.070400
0.070500
0.070600
0.070700
0.070800
0.070900
0.071000
0.071100
0.071200
0.071300
0.071400
0.071500
0.071600
0.071700
0.071800
0.071900
0.072000
0.072100
0.072200
0.072300
0.072400
0.072500
0.072600
0.072700
0.072800
0.072900
0.073000
0.073100
0.073200
0.073300
0.073400
0.073500
0.073600
0.073700
0.073800
0.073900
0.074000
0.074100
0.074200
0.074300
0.074400
0.074500
0.074600
0.074700
0.074800
0.074900
0.075000
0.075100
0.075200
0.075300
0.075400
0.075500
0.075600
0.075700
0.075800
0.075900
0.076000
0.076100
0.076200
0.076300
0.076400
0.076500
0.076600
0.076700
0.076800
0.076900
0.077000
0.077100
0.077200
0.077300
0.077400
0.077500
0.077600
0.077700
0.077800
0.077900
0.078000
0.078100
0.078200
0.078300
0.078400
0.078500
0.078600
0.078700
0.078800
0.078900
0.079000
0.079100
0.079200
0.079300
0.079400
0.079500
0.079600
0.079700
0.079800
0.079900
0.080000
0.080100
0.080200
0.080300
0.080400
0.080500
0.080600
0.080700
0.080800
0.080900
0.081000
0.081100
0.081200
0.081300
0.081400
0.081500
0.081600
0.081700
0.081800
0.081900
0.082000
0.082100
0.082200
0.082300
0.082400
0.082500
0.082600
0.082700
0.082800
0.082900
0.083000
0.083100
0.083200
0.083300
0.083400
0.083500
0.083600
0.083700
0.083800
0.083900
0.084000
0.084100
0.084200
0.084300
0.084400
0.084500
0.084600
0.084700
0.084800
0.084900
0.085000
0.085100
0.085200
0.085300
0.085400
0.085500
0.085600
0.085700
0.085800
0.085900
0.086000
0.086100
0.086200
0.086300
0.086400
0.086500
0.086600
0.086700
0.086800
0.086900
0.087000
0.087100
0.087200
0.087300
0.087400
0.087500
0.087600
0.087700
0.087800
0.087900
0.088000
0.088100
0.088200
0.088300
0.088400
0.088500
0.088600
0.088700
0.088800
0.088900
0.089000
0.089100
0.089200
0.089300
0.089400
0.089500
0.089600
0.089700
0.089800
0.089900
0.090000
0.090100
0.090200
0.090300
0.090400
0.090500
0.090600
0.090700
0.090800
0.090900
0.091000
0.091100
0.091200
0.091300
0.091400
0.091500
0.091600
0.091700
0.091800
0.091900
0.092000
0.092100
0.092200
0.092300
0.092400
0.092500
0.092600
0.092700
0.092800
0.092900
0.093000
0.093100
0.093200
0.093300
0.093400
0.093500
0.093600
0.093700
0.093800
0.093900
0.094000
0.094100
0.094200
0.094300
0.094400
0.094500
0.094600
0.094700
0.094800
0.094900
0.095000
0.095100
0.095200
0.095300
0.095400
0.095500
0.095600
0.095700
0.095800
0.095900
0.096000
0.096100
0.096200
0.096300
0.096400
0.096500
0.096600
0.096700
0.096800
0.096900
0.097000
0.097100
0.097200
0.097300
0.097400
0.097500
0.097600
0.097700
0.097800
0.097900
0.098000
0.098100
0.098200
0.098300
0.098400
0.098500
0.098600
0.098700
0.098800
0.098900
0.099000
0.099100
0.099200
0.099300
0.099400
0.099500
0.099600
0.099700
0.099800
0.099900
0.100000
0.100100
0.100200
0.100300
0.100400
0.100500
0.100600
0.100700
0.100800
0.100900
0.101000
0.101100
0.101200
0.101300
0.101400
0.101500
0.101600
0.101700
0.101800
0.101900
0.102000
0.102100
0.102200
0.102300
0.102400
0.102500
0.102600
0.102700
0.102800
0.102900
0.103000
0.103100
0.103200
0.103300
0.103400
0.103500
0.103600
0.103700
0.103800
0.103900
0.104000
0.104100
0.104200
0.104300
0.104400
0.104500
0.104600
0.104700
0.104800
0.104900
0.105000
0.105100
0.105200
0.105300
0.105400
0.105500
0.105600
0.105700
0.105800
0.105900
0.106000
0.106100
0.106200
0.106300
0.106400
0.106500
0.106600
0.106700
0.106800
0.106900
0.107000
0.107100
0.107200
0.107300
0.107400
0.107500
0.107600
0.107700
0.107800
0.107900
0.108000
0.108100
0.108200
0.108300
0.108400
0.108500
0.108600
0.108700
0.108800
0.108900
0.109000
0.109100
0.109200
0.109300
0.109400
0.109500
0.109600
0.109700
0.109800
0.109900
0.110000
0.110100
0.110200
0.110300
0.110400
0.110500
0.110600
0.110700
0.110800
0.110900
0.111000
0.111100
0.111200
0.111300
0.111400
0.111500
0.111600
0.111700
0.111800
0.111900
0.112000
0.112100
0.112200
0.112300
0.112400
0.112500
0.112600
0.112700
0.112800
0.112900
0.113000
0.113100
0.113200
0.113300
0.113400
0.113500
0.113600
0.113700
0.113800
0.113900
0.114000
0.114100
0.114200
0.114300
0.114400
0.114500
0.114600
0.114700
0.114800
0.114900
0.115000
0.115100
0.115200
0.115300
0.115400
0.115500
0.115600
0.115700
0.115800
0.115900
0.116000
0.116100
0.116200
0.116300
0.116400
0.116500
0.116600
0.116700
0.116800
0.116900
0.117000
0.117100
0.117200
0.117300
0.117400
0.117500
0.117600
0.117700
0.117800
0.117900
0.118000
0.118100
0.118200
0.118300
0.118400
0.118500
0.118600
0.118700
0.118800
0.118900
0.119000
0.119100
0.119200
0.119300
0.119400
0.119500
0.119600
0.119700
0.119800
0.119900
0.120000
0.120100
0.120200
0.120300
0.120400
0.120500
0.120600
0.120700
0.120800
0.120900
0.121000
0.121100
0.121200
0.121300
0.121400
0.121500
0.121600
0.121700
0.121800
0.121900
0.122000
0.122100
0.122200
0.122300
0.122400
0.122500
0.122600
0.122700
0.122800
0.122900
0.123000
0.123100
0.123200
0.123300
0.123400
0.123500
0.123600
0.123700
0.123800
0.123900
0.124000
0.124100
0.124200
0.124300
0.124400
0.124500
0.124600
0.124700
0.124800
0.124900
0.125000
0.125100
0.125200
0.125300
0.125400
0.125500
0.125600
0.125700
0.125800
0.125900
0.126000
0.126100
0.126200
0.126300
0.126400
0.126500
0.126600
0.126700
0.126800
0.126900
0.127000
0.127100
0.127200
0.127300
0.127400
0.127500
0.127600
0.127700
0.127800
0.127900
0.128000
0.128100
0.128200
0.128300
0.128400
0.128500
0.128600
0.128700
0.128800
0.128900
0.129000
0.129100
0.129200
0.129300
0.129400
0.129500
0.129600
0.129700
0.129800
0.129900
0.130000
0.130100
0.130200
0.130300
0.130400
0.130500
0.130600
0.130700
0.130800
0.130900
0.131000
0.131100
0.131200
0.131300
0.131400
0.131500
0.131600
0.131700
0.131800
0.131900
0.132000
0.132100
0.132200
0.132300
0.132400
0.132500
0.132600
0.132700
0.132800
0.132900
0.133000
0.133100
0.133200
0.133300
0.133400
0.133500
0.133600
0.133700
0.133800
0.133900
0.134000
0.134100
0.134200
0.134300
0.134400
0.134500
0.134600
0.134700
0.134800
0.134900
0.135000
0.135100
0.135200
0.135300
0.135400
0.135500
0.135600
0.135700
0.135800
0.135900
0.136000
0.136100
0.136200
0.136300
0.136400
0.136500
0.136600
0.136700
0.136800
0.136900
0.137000
0.137100
0.137200
0.137300
0.137400
0.137500
0.137600
0.137700
0.137800
0.137900
0.138000
0.138100
0.138200
0.138300
0.138400
0.138500
0.138600
0.138700
0.138800
0.138900
0.139000
0.139100
0.139200
0.139300
0.139400
0.139500
0.139600
0.139700
0.139800
0.139900
0.140000
0.140100
0.140200
0.140300
0.140400
0.140500
0.140600
0.140700
0.140800
0.140900
0.141000
0.141100
0.141200
0.141300
0.141400
0.141500
0.141600
0.141700
0.141800
0.141900
0.142000
0.142100
0.142200
0.142300
0.142400
0.142500
0.142600
0.142700
0.142800
0.142900
0.143000
0.143100
0.143200
0.143300
0.143400
0.143500
0.143600
0.143700
0.143800
0.143900
0.144000
0.144100
0.144200
0.144300
0.144400
0.144500
0.144600
0.144700
0.144800
0.144900
0.145000
0.145100
0.145200
0.145300
0.145400
0.145500
0.145600
0.145700
0.145800
0.145900
0.146000
0.146100
0.146200
0.146300
0.146400
0.146500
0.146600
0.146700
0.146800
0.146900
0.147000
0.147100
0.147200
0.147300
0.147400
0.147500
0.147600
0.147700
0.147800
0.147900
0.148000
0.148100
0.148200
0.148300
0.148400
0.148500
0.148600
0.148700
0.148800
0.148900
0.149000
0.149100
0.149200
0.149300
0.149400
0.149500
0.149600
0.149700
0.149800
0.149900
0.150000
0.150100
0.150200
0.150300
0.150400
0.150500
0.150600
0.150700
0.150800
0.150900
0.151000
0.151100
0.151200
0.151300
0.151400
0.151500
0.151600
0.151700
0.151800
0.151900
0.152000
0.152100
0.152200
0.152300
0.152400
0.152500
0.152600
0.152700
0.152800
0.152900
0.153000
0.153100
0.153200
0.153300
0.153400
0.153500
0.153600
0.153700
0.153800
0.153900
0.154000
0.154100
0.154200
0.154300
0.154400
0.154500
0.154600
0.154700
0.154800
0.154900
0.155000
0.155100
0.155200
0.155300
0.155400
0.155500
0.155600
0.155700
0.155800
0.155900
0.156000
0.156100
0.156200
0.156300
0.156400
0.156500
0.156600
0.156700
0.156800
0.156900
0.157000
0.157100
0.157200
0.157300
0.157400
0.157500
0.157600
0.157700
0.157800
0.157900
0.158000
0.158100
0.158200
0.158300
0.158400
0.158500
0.158600
0.158700
0.158800
0.158900
0.159000
0.159100
0.159200
0.159300
0.159400
0.159500
0.159600
0.159700
0.159800
0.159900
0.160000
0.160100
0.160200
0.160300
0.160400
0.160500
0.160600
0.160700
0.160800
0.160900
0.161000
0.161100
0.161200
0.161300
0.161400
0.161500
0.161600
0.161700
0.161800
0.161900
0.162000
0.162100
0.162200
0.162300
0.162400
0.162500
0.162600
0.162700
0.162800
0.162900
0.163000
0.163100
0.163200
0.163300
0.163400
0.163500
0.163600
0.163700
0.163800
0.163900
0.164000
0.164100
0.164200
0.164300
0.164400
0.164500
0.164600
0.164700
0.164800
0.164900
0.165000
0.165100
0.165200
0.165300
0.165400
0.165500
0.165600
0.165700
0.165800
0.165900
0.166000
0.166100
0.166200
0.166300
0.166400
0.166500
0.166600
0.166700
0.166800
0.166900
0.167000
0.167100
0.167200
0.167300
0.167400
0.167500
0.167600
0.167700
0.167800
0.167900
0.168000
0.168100
0.168200
0.168300
0.168400
0.168500
0.168600
0.168700
0.168800
0.168900
0.169000
0.169100
0.169200
0.169300
0.169400
0.169500
0.169600
0.169700
0.169800
0.169900
0.170000
0.170100
0.170200
0.170300
0.170400
0.170500
0.170600
0.170700
0.170800
0.170900
0.171000
0.171100
0.171200
0.171300
0.171400
0.171500
0.171600
0.171700
0.171800
0.171900
0.172000
0.172100
0.172200
0.172300
0.172400
0.172500
0.172600
0.172700
0.172800
0.172900
0.173000
0.173100
0.173200
0.173300
0.173400
0.173500
0.173600
0.173700
0.173800
0.173900
0.174000
0.174100
0.174200
0.174300
0.174400
0.174500
0.174600
0.174700
0.174800
0.174900
0.175000
0.175100
0.175200
0.175300
0.175400
0.175500
0.175600
0.175700
0.175800
0.175900
0.176000
0.176100
0.176200
0.176300
0.176400
0.176500
0.176600
0.176700
0.176800
0.176900
0.177000
0.177100
0.177200
0.177300
0.177400
0.177500
0.177600
0.177700
0.177800
0.177900
0.178000
0.178100
0.178200
0.178300
0.178400
0.178500
0.178600
0.178700
0.178800
0.178900
0.179000
0.179100
0.179200
0.179300
0.179400
0.179500
0.179600
0.179700
0.179800
0.179900
0.180000
0.180100
0.180200
0.180300
0.180400
0.180500
0.180600
0.180700
0.180800
0.180900
0.181000
0.181100
0.181200
0.181300
0.181400
0.181500
0.181600
0.181700
0.181800
0.181900
0.182000
0.182100
0.182200
0.182300
0.182400
0.182500
0.182600
0.182700
0.182800
0.182900
0.183000
0.183100
0.183200
0.183300
0.183400
0.183500
0.183600
0.183700
0.183800
0.183900
0.184000
0.184100
0.184200
0.184300
0.184400
0.184500
0.184600
0.184700
0.184800
0.184900
0.185000
0.185100
0.185200
0.185300
0.185400
0.185500
0.185600
0.185700
0.185800
0.185900
0.186000
0.186100
0.186200
0.186300
0.186400
0.186500
0.186600
0.186700
0.186800
0.186900
0.187000
0.187100
0.187200
0.187300
0.187400
0.187500
0.187600
0.187700
0.187800
0.187900
0.188000
0.188100
0.188200
0.188300
0.188400
0.188500
0.188600
0.188700
0.188800
0.188900
0.189000
0.189100
0.189200
0.189300
0.189400
0.189500
0.189600
0.189700
0.189800
0.189900
0.190000
0.190100
0.190200
0.190300
0.190400
0.190500
0.190600
0.190700
0.190800
0.190900
0.191000
0.191100
0.191200
0.191300
0.191400
0.191500
0.191600
0.191700
0.191800
0.191900
0.192000
0.192100
0.192200
0.192300
0.192400
0.192500
0.192600
0.192700
0.192800
0.192900
0.193000
0.193100
0.193200
0.193300
0.193400
0.193500
0.193600
0.193700
0.193800
0.193900
0.194000
0.194100
0.194200
0.194300
0.194400
0.194500
0.194600
0.194700
0.194800
0.194900
0.195000
0.195100
0.195200
0.195300
0.195400
0.195500
0.195600
0.195700
0.195800
0.195900
0.196000
0.196100
0.196200
0.196300
0.196400
0.196500
0.196600
0.196700
0.196800
0.196900
0.197000
0.197100
0.197200
0.197300
0.197400
0.197500
0.197600
0.197700
0.197800
0.197900
0.198000
0.198100
0.198200
0.198300
0.198400
0.198500
0.198600
0.198700
0.198800
0.198900
0.199000
0.199100
0.199200
0.199300
0.199400
0.199500
0.199600
0.199700
0.199800
0.199900
0.200000
0.200100
0.200200
0.200300
0.200400
0.200500
0.200600
0.200700
0.200800
0.200900
0.201000
0.201100
0.201200
0.201300
0.201400
0.201500
0.201600
0.201700
0.201800
0.201900
0.202000
0.202100
0.202200
0.202300
0.202400
0.202500
0.202600
0.202700
0.202800
0.202900
0.203000
0.203100
0.203200
0.203300
0.203400
0.203500
0.203600
0.203700
0.203800
0.203900
0.204000
0.204100
0.204200
0.204300
0.204400
0.204500
0.204600
0.204700
0.204800
0.204900
0.205000
0.205100
0.205200
0.205300
0.205400
0.205500
0.205600
0.205700
0.205800
0.205900
0.206000
0.206100
0.206200
0.206300
0.206400
0.206500
0.206600
0.206700
0.206800
0.206900
0.207000
0.207100
0.207200
0.207300
0.207400
0.207500
0.207600
0.207700
0.207800
0.207900
0.208000
0.208100
0.208200
0.208300
0.208400
0.208500
0.208600
0.208700
0.208800
0.208900
0.209000
0.209100
0.209200
0.209300
0.209400
0.209500
0.209600
0.209700
0.209800
0.209900
0.210000
0.210100
0.210200
0.210300
0.210400
0.210500
0.210600
0.210700
0.210800
0.210900
0.211000
0.211100
0.211200
0.211300
0.211400
0.211500
0.211600
0.211700
0.211800
0.211900
0.212000
0.212100
0.212200
0.212300
0.212400
0.212500
0.212600
0.212700
0.212800
0.212900
0.213000
0.213100
0.213200
0.213300
0.213400
0.213500
0.213600
0.213700
0.213800
0.213900
0.214000
0.214100
0.214200
0.214300
0.214400
0.214500
0.214600
0.214700
0.214800
0.214900
0.215000
0.215100
0.215200
0.215300
0.215400
0.215500
0.215600
0.215700
0.215800
0.215900
0.216000
0.216100
0.216200
0.216300
0.216400
0.216500
0.216600
0.216700
0.216800
0.216900
0.217000
0.217100
0.217200
0.217300
0.217400
0.217500
0.217600
0.217700
0.217800
0.217900
0.218000
0.218100
0.218200
0.218300
0.218400
0.218500
0.218600
0.218700
0.218800
0.218900
0.219000
0.219100
0.219200
0.219300
0.219400
0.219500
0.219600
0.219700
0.219800
0.219900
0.220000
0.220100
0.220200
0.220300
0.220400
0.220500
0.220600
0.220700
0.220800
0.220900
0.221000
0.221100
0.221200
0.221300
0.221400
0.221500