# vtk DataFile Version 2.0
Generated Volume Mesh
ASCII
DATASET UNSTRUCTURED_GRID
POINTS 2428 float
-1.027592 1.113622 0.286961
0.008398 1.149498 0.033973
0.008398 1.029550 0.030428
-1.027592 0.997418 0.257017
-1.114990 1.081058 0.392191
-1.114995 0.967810 0.352483
-1.114995 1.080564 0.393549
-1.019758 0.929009 0.444795
-1.019758 1.037243 0.496615
0.006013 0.947774 0.651325
0.006013 0.848876 0.583361
0.000000 0.906718 0.707363
0.000000 0.812104 0.633552
-1.251255 0.906718 0.707363
-1.251255 0.812104 0.633552
-1.307537 0.923895 0.684775
-1.307537 0.827489 0.613321
-1.308000 0.827820 0.612873
-1.308000 0.924265 0.684276
-1.308000 0.835702 0.790001
-1.308000 0.748499 0.707566
-1.307537 0.748881 0.707161
-1.307537 0.836129 0.789549
-1.251255 0.855356 0.768678
-1.251255 0.766102 0.688468
-0.000000 0.855356 0.768678
0.000000 0.766102 0.688468
0.006013 0.807383 0.818922
0.006013 0.723134 0.733469
-1.019758 0.670753 0.934126
-1.019758 0.600761 0.836652
-1.027592 0.476419 1.046673
-1.027592 0.426705 0.937455
0.008398 0.233537 1.126038
0.008398 0.209168 1.008538
0.008398 0.166628 1.137864
0.008398 0.149241 1.019131
-1.027592 -0.088743 1.146571
-1.027592 -0.079483 1.026929
-1.027592 -0.308295 1.107905
-1.027592 -0.276125 0.992298
0.008398 -0.545328 1.012481
0.008398 -0.488424 0.906831
0.008398 -0.604170 0.978508
0.008398 -0.541126 0.876403
-1.027592 -0.805327 0.820944
-1.027592 -0.721292 0.735280
-1.114990 -0.880176 0.740128
-1.114995 -0.789164 0.661906
-1.114995 -0.881106 0.739021
-1.019758 -0.849708 0.582148
-1.019758 -0.948703 0.649971
0.006013 -1.037951 0.495134
0.006013 -0.929643 0.443468
-0.000000 -1.065953 0.431559
0.000000 -0.954724 0.386527
-1.251255 -1.065953 0.431559
-1.251255 -0.954724 0.386527
-1.307537 -1.054981 0.457729
-1.307537 -0.944896 0.409966
-1.308000 -0.944674 0.410477
-1.308000 -1.054733 0.458299
-1.308000 -1.102012 0.328739
-1.308000 -0.987019 0.294436
-1.307537 -0.986860 0.294969
-1.307537 -1.101834 0.329335
-1.251255 -1.093373 0.356422
-1.251255 -0.979282 0.319230
-0.000000 -1.093373 0.356422
0.000000 -0.979282 0.319230
0.006013 -1.112898 0.289753
0.006013 -0.996770 0.259518
-1.019758 -1.144353 0.113826
-1.019758 -1.024942 0.101949
-1.027592 -1.144655 -0.110746
-1.027592 -1.025213 -0.099190
0.008398 -1.091946 -0.360770
0.008398 -0.978003 -0.323125
0.008398 -1.068734 -0.424628
0.008398 -0.957214 -0.380319
-1.027592 -0.948588 -0.650139
-1.027592 -0.849605 -0.582298
-1.027592 -0.805327 -0.820944
-1.027592 -0.721292 -0.735280
0.008398 -0.604170 -0.978508
0.008398 -0.541126 -0.876403
0.008398 -0.545328 -1.012481
0.008398 -0.488424 -0.906831
-1.027592 -0.308295 -1.107905
-1.027592 -0.276125 -0.992298
0.000000 0.159236 -1.138922
0.006013 0.090177 -1.146459
0.006013 0.080767 -1.026828
0.000000 0.142620 -1.020078
-1.251255 0.159236 -1.138922
-1.251255 0.142620 -1.020078
-1.307537 0.131085 -1.142505
-1.307537 0.117407 -1.023287
-1.308000 0.116854 -1.023350
-1.308000 0.130468 -1.142575
-1.308000 0.266310 -1.118740
-1.308000 0.238521 -1.002002
-1.307537 0.237979 -1.002131
-1.307537 0.265705 -1.118884
-1.251255 0.238016 -1.125099
-1.251255 0.213180 -1.007698
0.000000 0.238016 -1.125099
0.000000 0.213180 -1.007698
0.006013 0.305516 -1.108675
0.006013 0.273636 -0.992987
-1.019758 0.473600 -1.047952
-1.019758 0.424181 -0.938600
-1.027592 0.668236 -0.935927
-1.027592 0.598507 -0.838265
0.008398 0.858409 -0.765267
0.008398 0.768836 -0.685413
0.008398 0.902105 -0.713237
0.008398 0.807972 -0.638812
-1.027592 1.037331 -0.496432
-1.027592 0.929088 -0.444630
-1.027592 1.113622 -0.286961
-1.027592 0.997418 -0.257017
0.008398 1.149498 -0.033973
0.008398 1.029550 -0.030428
-1.008398 1.091719 -0.361456
0.027592 1.144585 -0.111465
0.027592 1.025150 -0.099834
-1.008398 0.977800 -0.323739
-1.008398 1.068466 -0.425299
-1.008398 0.956974 -0.380920
0.027592 0.948179 -0.650735
0.027592 0.849239 -0.582832
0.027592 0.804810 -0.821450
0.027592 0.720830 -0.735734
-1.008398 0.603555 -0.978888
-1.008398 0.540575 -0.876743
-1.006013 0.544249 -1.013061
-1.006013 0.487458 -0.907350
0.019758 0.380717 -1.085152
0.019758 0.340990 -0.971918
0.087178 0.198746 -1.132696
0.087178 0.178007 -1.014502
0.019758 0.011459 -1.149943
0.019758 0.010263 -1.029949
-1.006013 -0.166847 -1.137832
-1.006013 -0.149437 -1.019102
-1.034993 -0.179283 -1.014277
-1.034993 -0.200170 -1.132445
-1.008398 -0.208534 -1.008669
-1.008398 -0.232829 -1.126184
0.027592 -0.475761 -1.046973
0.027592 -0.426116 -0.937723
0.027592 -0.668825 -0.935507
0.027592 -0.599034 -0.837889
-1.008398 -0.858890 -0.764728
-1.008398 -0.769266 -0.684930
-1.008398 -0.902553 -0.712669
-1.008398 -0.808374 -0.638304
0.027592 -1.037643 -0.495780
0.027592 -0.929367 -0.444046
0.027592 -1.113802 -0.286261
0.027592 -0.997579 -0.256390
-1.008398 -1.149519 -0.033250
-1.008398 -1.029569 -0.029781
-1.006013 -1.149461 0.035197
-1.006013 -1.029518 0.031524
0.019758 -1.130128 0.212865
0.019758 -1.012201 0.190653
0.087178 -1.080317 0.394229
0.087178 -0.967588 0.353092
0.019758 -1.001609 0.565048
0.019758 -0.897093 0.506086
-1.006013 -0.901968 0.713410
-1.006013 -0.807850 0.638967
-1.034993 -0.788748 0.662402
-1.034993 -0.880641 0.739575
-1.008398 -0.769266 0.684930
-1.008398 -0.858890 0.764728
0.027592 -0.668825 0.935507
0.027592 -0.599034 0.837889
0.027592 -0.475761 1.046973
0.027592 -0.426116 0.937723
-1.008398 -0.232829 1.126184
-1.008398 -0.208534 1.008669
-1.008398 -0.165913 1.137969
-1.008398 -0.148601 1.019224
0.027592 0.089463 1.146515
0.027592 0.080128 1.026878
0.027592 0.308991 1.107711
0.027592 0.276749 0.992124
-1.008398 0.545964 1.012138
-1.008398 0.488994 0.906524
-1.006013 0.605212 0.977864
-1.006013 0.542059 0.875826
0.019758 0.749410 0.872287
0.019758 0.671211 0.781266
0.087178 0.881570 0.738467
0.087178 0.789580 0.661410
0.019758 0.990150 0.584895
0.019758 0.886830 0.523863
-1.006013 1.068815 0.424422
-1.006013 0.957287 0.380135
-1.034993 0.968031 0.351875
-1.034993 1.080811 0.392870
-1.008398 0.977800 0.323739
-1.008398 1.091719 0.361456
0.027592 1.144585 0.111465
0.027592 1.025150 0.099834
0.114958 1.029996 0.000008
0.114958 1.150000 0.000009
0.035001 1.030000 -0.000000
0.035001 1.150000 -0.000000
-1.114991 -0.179920 -1.014164
-1.114991 -0.200882 -1.132319
-1.114991 -0.199458 -1.132571
-1.019758 -0.088540 -1.146587
-1.019758 -0.079301 -1.026943
-1.114991 -0.178645 -1.014389
-0.509597 1.138601 0.161465
-0.509597 1.019797 0.144618
-1.089794 1.103028 0.325304
-1.091906 0.987233 0.293718
-1.088999 0.944084 0.411831
-1.087260 1.053231 0.461728
-0.506872 0.995517 0.575710
-0.506872 0.891638 0.515637
0.034887 0.926035 0.681879
0.034855 0.829223 0.610974
-0.834170 0.906718 0.707363
-0.417085 0.906718 0.707363
-0.417085 0.812104 0.633552
-0.834170 0.812104 0.633552
-0.417085 0.855356 0.768678
-0.834170 0.855356 0.768678
-0.834170 0.766102 0.688468
-0.417085 0.766102 0.688468
0.034896 0.833653 0.792164
0.034864 0.746877 0.709278
-0.506872 0.741308 0.879181
-0.506872 0.663955 0.787441
-1.091480 0.514351 1.028551
-1.114939 0.578759 0.993738
-1.086860 0.639664 0.955724
-1.088835 0.571172 0.857125
-1.114846 0.519966 0.889120
-1.093583 0.462977 0.920082
-0.509597 0.357186 1.093115
-0.509597 0.319917 0.979057
0.035002 0.200170 1.132445
0.035002 0.179283 1.014278
-0.509597 0.039185 1.149325
-0.509597 0.035096 1.029402
-1.103651 -0.248250 1.122899
-1.104003 -0.150906 1.140043
-1.099169 -0.126979 1.022143
-1.107726 -0.214061 1.007510
-0.509597 -0.429467 1.066790
-0.509597 -0.384656 0.955479
0.035002 -0.575000 0.995929
0.035002 -0.515001 0.892007
-0.509597 -0.709134 0.905325
-0.509597 -0.635141 0.810861
-1.089794 -0.833236 0.792598
-1.091906 -0.747985 0.708109
-1.089000 -0.828698 0.611685
-1.087261 -0.926483 0.681261
-0.506872 -0.996338 0.574288
-0.506872 -0.892374 0.514363
0.034887 -1.053542 0.461031
0.034855 -0.943731 0.412641
-0.834170 -1.065953 0.431559
-0.417085 -1.065953 0.431559
-0.417085 -0.954724 0.386527
-0.834170 -0.954724 0.386527
-0.417085 -1.093373 0.356422
-0.834170 -1.093373 0.356422
-0.834170 -0.979282 0.319230
-0.417085 -0.979282 0.319230
0.034896 -1.102860 0.325883
0.034864 -0.987691 0.292176
-0.506872 -1.132047 0.202401
-0.506872 -1.013922 0.181281
-1.091480 -1.147927 -0.068834
-1.114939 -1.149982 0.004352
-1.086860 -1.147513 0.076104
-1.088835 -1.027878 0.066088
-1.114846 -1.029983 0.005744
-1.093583 -1.028303 -0.059091
-0.509597 -1.125259 -0.237225
-0.509597 -1.007847 -0.212472
0.035002 -1.080811 -0.392870
0.035002 -0.968032 -0.351876
-0.509597 -1.014937 -0.540727
-0.509597 -0.909036 -0.484306
-1.103650 -0.848334 -0.776441
-1.104003 -0.911853 -0.700710
-1.099169 -0.821712 -0.621039
-1.107726 -0.765499 -0.689138
-0.509597 -0.709134 -0.905325
-0.509597 -0.635141 -0.810861
0.035002 -0.575000 -0.995929
0.035002 -0.515001 -0.892007
-0.509597 -0.429467 -1.066790
-0.509597 -0.384656 -0.955479
0.034887 0.127506 -1.142910
0.034855 0.114508 -1.023615
-0.834170 0.159236 -1.138922
-0.417085 0.159236 -1.138922
-0.417085 0.142620 -1.020078
-0.834170 0.142620 -1.020078
-0.417085 0.238016 -1.125099
-0.834170 0.238016 -1.125099
-0.834170 0.213180 -1.007698
-0.417085 0.213180 -1.007698
0.034896 0.269208 -1.118046
0.034864 0.240814 -1.001453
-0.506872 0.390739 -1.081582
-0.506872 0.349966 -0.968723
-1.091480 0.633576 -0.959717
-1.114939 0.571222 -0.998089
-1.086860 0.507850 -1.031827
-1.088835 0.456706 -0.923212
-1.114846 0.510018 -0.894864
-1.093583 0.565326 -0.860991
-0.509597 0.768072 -0.855890
-0.509597 0.687930 -0.766585
0.035002 0.880641 -0.739575
0.035002 0.788749 -0.662403
-0.509597 0.975752 -0.608598
-0.509597 0.873940 -0.545095
-1.103650 1.096584 -0.346458
-1.104003 1.062759 -0.439333
-1.099169 0.948691 -0.401104
-1.107726 0.979560 -0.318373
-0.509597 1.138601 -0.161465
-0.509597 1.019797 -0.144618
-0.490403 1.125109 -0.237932
-0.490403 1.007713 -0.213106
-1.035002 1.080564 -0.393550
-1.035002 0.967811 -0.352484
-0.490403 1.014597 -0.541365
-0.490403 0.908732 -0.484878
0.103652 0.847847 -0.776972
0.104003 0.911413 -0.701281
0.099170 0.821323 -0.621554
0.107727 0.765067 -0.689617
[...]
POINT_DATA 2428
SCALARS var1 float
LOOKUP_TABLE default
0.000000
0.000100
0.000200
0.000300
0.000400
0.000500
0.000600
0.000700
0.000800
0.000900
0.001000
0.001100
0.001200
0.001300
0.001400
0.001500
0.001600
0.001700
0.001800
0.001900
0.002000
0.002100
0.002200
0.002300
0.002400
0.002500
0.002600
0.002700
0.002800
0.002900
0.003000
0.003100
0.003200
0.003300
0.003400
0.003500
0.003600
0.003700
0.003800
0.003900
0.004000
0.004100
0.004200
0.004300
0.004400
0.004500
0.004600
0.004700
0.004800
0.004900
0.005000
0.005100
0.005200
0.005300
0.005400
0.005500
0.005600
0.005700
0.005800
0.005900
0.006000
0.006100
0.006200
0.006300
0.006400
0.006500
0.006600
0.006700
0.006800
0.006900
0.007000
0.007100
0.007200
0.007300
0.007400
0.007500
0.007600
0.007700
0.007800
0.007900
0.008000
0.008100
0.008200
0.008300
0.008400
0.008500
0.008600
0.008700
0.008800
0.008900
0.009000
0.009100
0.009200
0.009300
0.009400
0.009500
0.009600
0.009700
0.009800
0.009900
0.010000
0.010100
0.010200
0.010300
0.010400
0.010500
0.010600
0.010700
0.010800
0.010900
0.011000
0.011100
0.011200
0.011300
0.011400
0.011500
0.011600
0.011700
0.011800
0.011900
0.012000
0.012100
0.012200
0.012300
0.012400
0.012500
0.012600
0.012700
0.012800
0.012900
0.013000
0.013100
0.013200
0.013300
0.013400
0.013500
0.013600
0.013700
0.013800
0.013900
0.014000
0.014100
0.014200
0.014300
0.014400
0.014500
0.014600
0.014700
0.014800
0.014900
0.015000
0.015100
0.015200
0.015300
0.015400
0.015500
0.015600
0.015700
0.015800
0.015900
0.016000
0.016100
0.016200
0.016300
0.016400
0.016500
0.016600
0.016700
0.016800
0.016900
0.017000
0.017100
0.017200
0.017300
0.017400
0.017500
0.017600
0.017700
0.017800
0.017900
0.018000
0.018100
0.018200
0.018300
0.018400
0.018500
0.018600
0.018700
0.018800
0.018900
0.019000
0.019100
0.019200
0.019300
0.019400
0.019500
0.019600
0.019700
0.019800
0.019900
0.020000
0.020100
0.020200
0.020300
0.020400
0.020500
0.020600
0.020700
0.020800
0.020900
0.021000
0.021100
0.021200
0.021300
0.021400
0.021500
0.021600
0.021700
0.021800
0.021900
0.022000
0.022100
0.022200
0.022300
0.022400
0.022500
0.022600
0.022700
0.022800
0.022900
0.023000
0.023100
0.023200
0.023300
0.023400
0.023500
0.023600
0.023700
0.023800
0.023900
0.024000
0.024100
0.024200
0.024300
0.024400
0.024500
0.024600
0.024700
0.024800
0.024900
0.025000
0.025100
0.025200
0.025300
0.025400
0.025500
0.025600
0.025700
0.025800
0.025900
0.026000
0.026100
0.026200
0.026300
0.026400
0.026500
0.026600
0.026700
0.026800
0.026900
0.027000
0.027100
0.027200
0.027300
0.027400
0.027500
0.027600
0.027700
0.027800
0.027900
0.028000
0.028100
0.028200
0.028300
0.028400
0.028500
0.028600
0.028700
0.028800
0.028900
0.029000
0.029100
0.029200
0.029300
0.029400
0.029500
0.029600
0.029700
0.029800
0.029900
0.030000
0.030100
0.030200
0.030300
0.030400
0.030500
0.030600
0.030700
0.030800
0.030900
0.031000
0.031100
0.031200
0.031300
0.031400
0.031500
0.031600
0.031700
0.031800
0.031900
0.032000
0.032100
0.032200
0.032300
0.032400
0.032500
0.032600
0.032700
0.032800
0.032900
0.033000
0.033100
0.033200
0.033300
0.033400
0.033500
0.033600
0.033700
0.033800
0.033900
0.034000
0.034100
0.034200
0.034300
0.034400
0.034500
0.034600
0.034700
0.034800
0.034900
0.035000
0.035100
0.035200
0.035300
0.035400
0.035500
0.035600
0.035700
0.035800
0.035900
0.036000
0.036100
0.036200
0.036300
0.036400
0.036500
0.036600
0.036700
0.036800
0.036900
0.037000
0.037100
0.037200
0.037300
0.037400
0.037500
0.037600
0.037700
0.037800
0.037900
0.038000
0.038100
0.038200
0.038300
0.038400
0.038500
0.038600
0.038700
0.038800
0.038900
0.039000
0.039100
0.039200
0.039300
0.039400
0.039500
0.039600
0.039700
0.039800
0.039900
0.040000
0.040100
0.040200
0.040300
0.040400
0.040500
0.040600
0.040700
0.040800
0.040900
0.041000
0.041100
0.041200
0.041300
0.041400
0.041500
0.041600
0.041700
0.041800
0.041900
0.042000
0.042100
0.042200
0.042300
0.042400
0.042500
0.042600
0.042700
0.042800
0.042900
0.043000
0.043100
0.043200
0.043300
0.043400
0.043500
0.043600
0.043700
0.043800
0.043900
0.044000
0.044100
0.044200
0.044300
0.044400
0.044500
0.044600
0.044700
0.044800
0.044900
0.045000
0.045100
0.045200
0.045300
0.045400
0.045500
0.045600
0.045700
0.045800
0.045900
0.046000
0.046100
0.046200
0.046300
0.046400
0.046500
0.046600
0.046700
0.046800
0.046900
0.047000
0.047100
0.047200
0.047300
0.047400
0.047500
0.047600
0.047700
0.047800
0.047900
0.048000
0.048100
0.048200
0.048300
0.048400
0.048500
0.048600
0.048700
0.048800
0.048900
0.049000
0.049100
0.049200
0.049300
0.049400
0.049500
0.049600
0.049700
0.049800
0.049900
0.050000
0.050100
0.050200
0.050300
0.050400
0.050500
0.050600
0.050700
0.050800
0.050900
0.051000
0.051100
0.051200
0.051300
0.051400
0.051500
0.051600
0.051700
0.051800
0.051900
0.052000
0.052100
0.052200
0.052300
0.052400
0.052500
0.052600
0.052700
0.052800
0.052900
0.053000
0.053100
0.053200
0.053300
0.053400
0.053500
0.053600
0.053700
0.053800
0.053900
0.054000
0.054100
0.054200
0.054300
0.054400
0.054500
0.054600
0.054700
0.054800
0.054900
0.055000
0.055100
0.055200
0.055300
0.055400
0.055500
0.055600
0.055700
0.055800
0.055900
0.056000
0.056100
0.056200
0.056300
0.056400
0.056500
0.056600
0.056700
0.056800
0.056900
0.057000
0.057100
0.057200
0.057300
0.057400
0.057500
0.057600
0.057700
0.057800
0.057900
0.058000
0.058100
0.058200
0.058300
0.058400
0.058500
0.058600
0.058700
0.058800
0.058900
0.059000
0.059100
0.059200
0.059300
0.059400
0.059500
0.059600
0.059700
0.059800
0.059900
0.060000
0.060100
0.060200
0.060300
0.060400
0.060500
0.060600
0.060700
0.060800
0.060900
0.061000
0.061100
0.061200
0.061300
0.061400
0.061500
0.061600
0.061700
0.061800
0.061900
0.062000
0.062100
0.062200
0.062300
0.062400
0.062500
0.062600
0.062700
0.062800
0.062900
0.063000
0.063100
0.063200
0.063300
0.063400
0.063500
0.063600
0.063700
0.063800
0.063900
0.064000
0.064100
0.064200
0.064300
0.064400
0.064500
0.064600
0.064700
0.064800
0.064900
0.065000
0.065100
0.065200
0.065300
0.065400
0.065500
0.065600
0.065700
0.065800
0.065900
0.066000
0.066100
0.066200
0.066300
0.066400
0.066500
0.066600
0.066700
0.066800
0.066900
0.067000
0.067100
0.067200
0.067300
0.067400
0.067500
0.067600
0.067700
0.067800
0.067900
0.068000
0.068100
0.068200
0.068300
0.068400
0.068500
0.068600
0.068700
0.068800
0.068900
0.069000
0.069100
0.069200
0.069300
0.069400
0.069500
0.069600
0.069700
0.069800
0.069900
0.070000
0.070100
0.070200
0.070300
0.070400
0.070500
0.070600
0.070700
0.070800
0.070900
0.071000
0.071100
0.071200
0.071300
0.071400
0.071500
0.071600
0.071700
0.071800
0.071900
0.072000
0.072100
0.072200
0.072300
0.072400
0.072500
0.072600
0.072700
0.072800
0.072900
0.073000
0.073100
0.073200
0.073300
0.073400
0.073500
0.073600
0.073700
0.073800
0.073900
0.074000
0.074100
0.074200
0.074300
0.074400
0.074500
0.074600
0.074700
0.074800
0.074900
0.075000
0.075100
0.075200
0.075300
0.075400
0.075500
0.075600
0.075700
0.075800
0.075900
0.076000
0.076100
0.076200
0.076300
0.076400
0.076500
0.076600
0.076700
0.076800
0.076900
0.077000
0.077100
0.077200
0.077300
0.077400
0.077500
0.077600
0.077700
0.077800
0.077900
0.078000
0.078100
0.078200
0.078300
0.078400
0.078500
0.078600
0.078700
0.078800
0.078900
0.079000
0.079100
0.079200
0.079300
0.079400
0.079500
0.079600
0.079700
0.079800
0.079900
0.080000
0.080100
0.080200
0.080300
0.080400
0.080500
0.080600
0.080700
0.080800
0.080900
0.081000
0.081100
0.081200
0.081300
0.081400
0.081500
0.081600
0.081700
0.081800
0.081900
0.082000
0.082100
0.082200
0.082300
0.082400
0.082500
0.082600
0.082700
0.082800
0.082900
0.083000
0.083100
0.083200
0.083300
0.083400
0.083500
0.083600
0.083700
0.083800
0.083900
0.084000
0.084100
0.084200
0.084300
0.084400
0.084500
0.084600
0.084700
0.084800
0.084900
0.085000
0.085100
0.085200
0.085300
0.085400
0.085500
0.085600
0.085700
0.085800
0.085900
0.086000
0.086100
0.086200
0.086300
0.086400
0.086500
0.086600
0.086700
0.086800
0.086900
0.087000
0.087100
0.087200
0.087300
0.087400
0.087500
0.087600
0.087700
0.087800
0.087900
0.088000
0.088100
0.088200
0.088300
0.088400
0.088500
0.088600
0.088700
0.088800
0.088900
0.089000
0.089100
0.089200
0.089300
0.089400
0.089500
0.089600
0.089700
0.089800
0.089900
0.090000
0.090100
0.090200
0.090300
0.090400
0.090500
0.090600
0.090700
0.090800
0.090900
0.091000
0.091100
0.091200
0.091300
0.091400
0.091500
0.091600
0.091700
0.091800
0.091900
0.092000
0.092100
0.092200
0.092300
0.092400
0.092500
0.092600
0.092700
0.092800
0.092900
0.093000
0.093100
0.093200
0.093300
0.093400
0.093500
0.093600
0.093700
0.093800
0.093900
0.094000
0.094100
0.094200
0.094300
0.094400
0.094500
0.094600
0.094700
0.094800
0.094900
0.095000
0.095100
0.095200
0.095300
0.095400
0.095500
0.095600
0.095700
0.095800
0.095900
0.096000
0.096100
0.096200
0.096300
0.096400
0.096500
0.096600
0.096700
0.096800
0.096900
0.097000
0.097100
0.097200
0.097300
0.097400
0.097500
0.097600
0.097700
0.097800
0.097900
0.098000
0.098100
0.098200
0.098300
0.098400
0.098500
0.098600
0.098700
0.098800
0.098900
0.099000
0.099100
0.099200
0.099300
0.099400
0.099500
0.099600
0.099700
0.099800
0.099900
0.100000
0.100100
0.100200
0.100300
0.100400
0.100500
0.100600
0.100700
0.100800
0.100900
0.101000
0.101100
0.101200
0.101300
0.101400
0.101500
0.101600
0.101700
0.101800
0.101900
0.102000
0.102100
0.102200
0.102300
0.102400
0.102500
0.102600
0.102700
0.102800
0.102900
0.103000
0.103100
0.103200
0.103300
0.103400
0.103500
0.103600
0.103700
0.103800
0.103900
0.104000
0.104100
0.104200
0.104300
0.104400
0.104500
0.104600
0.104700
0.104800
0.104900
0.105000
0.105100
0.105200
0.105300
0.105400
0.105500
0.105600
0.105700
0.105800
0.105900
0.106000
0.106100
0.106200
0.106300
0.106400
0.106500
0.106600
0.106700
0.106800
0.106900
0.107000
0.107100
0.107200
0.107300
0.107400
0.107500
0.107600
0.107700
0.107800
0.107900
0.108000
0.108100
0.108200
0.108300
0.108400
0.108500
0.108600
0.108700
0.108800
0.108900
0.109000
0.109100
0.109200
0.109300
0.109400
0.109500
0.109600
0.109700
0.109800
0.109900
0.110000
0.110100
0.110200
0.110300
0.110400
0.110500
0.110600
0.110700
0.110800
0.110900
0.111000
0.111100
0.111200
0.111300
0.111400
0.111500
0.111600
0.111700
0.111800
0.111900
0.112000
0.112100
0.112200
0.112300
0.112400
0.112500
0.112600
0.112700
0.112800
0.112900
0.113000
0.113100
0.113200
0.113300
0.113400
0.113500
0.113600
0.113700
0.113800
0.113900
0.114000
0.114100
0.114200
0.114300
0.114400
0.114500
0.114600
0.114700
0.114800
0.114900
0.115000
0.115100
0.115200
0.115300
0.115400
0.115500
0.115600
0.115700
0.115800
0.115900
0.116000
0.116100
0.116200
0.116300
0.116400
0.116500
0.116600
0.116700
0.116800
0.116900
0.117000
0.117100
0.117200
0.117300
0.117400
0.117500
0.117600
0.117700
0.117800
0.117900
0.118000
0.118100
0.118200
0.118300
0.118400
0.118500
0.118600
0.118700
0.118800
0.118900
0.119000
0.119100
0.119200
0.119300
0.119400
0.119500
0.119600
0.119700
0.119800
0.119900
0.120000
0.120100
0.120200
0.120300
0.120400
0.120500
0.120600
0.120700
0.120800
0.120900
0.121000
0.121100
0.121200
0.121300
0.121400
0.121500
0.121600
0.121700
0.121800
0.121900
0.122000
0.122100
0.122200
0.122300
0.122400
0.122500
0.122600
0.122700
0.122800
0.122900
0.123000
0.123100
0.123200
0.123300
0.123400
0.123500
0.123600
0.123700
0.123800
0.123900
0.124000
0.124100
0.124200
0.124300
0.124400
0.124500
0.124600
0.124700
0.124800
0.124900
0.125000
0.125100
0.125200
0.125300
0.125400
0.125500
0.125600
0.125700
0.125800
0.125900
0.126000
0.126100
0.126200
0.126300
0.126400
0.126500
0.126600
0.126700
0.126800
0.126900
0.127000
0.127100
0.127200
0.127300
0.127400
0.127500
0.127600
0.127700
0.127800
0.127900
0.128000
0.128100
0.128200
0.128300
0.128400
0.128500
0.128600
0.128700
0.128800
0.128900
0.129000
0.129100
0.129200
0.129300
0.129400
0.129500
0.129600
0.129700
0.129800
0.129900
0.130000
0.130100
0.130200
0.130300
0.130400
0.130500
0.130600
0.130700
0.130800
0.130900
0.131000
0.131100
0.131200
0.131300
0.131400
0.131500
0.131600
0.131700
0.131800
0.131900
0.132000
0.132100
0.132200
0.132300
0.132400
0.132500
0.132600
0.132700
0.132800
0.132900
0.133000
0.133100
0.133200
0.133300
0.133400
0.133500
0.133600
0.133700
0.133800
0.133900
0.134000
0.134100
0.134200
0.134300
0.134400
0.134500
0.134600
0.134700
0.134800
0.134900
0.135000
0.135100
0.135200
0.135300
0.135400
0.135500
0.135600
0.135700
0.135800
0.135900
0.136000
0.136100
0.136200
0.136300
0.136400
0.136500
0.136600
0.136700
0.136800
0.136900
0.137000
0.137100
0.137200
0.137300
0.137400
0.137500
0.137600
0.137700
0.137800
0.137900
0.138000
0.138100
0.138200
0.138300
0.138400
0.138500
0.138600
0.138700
0.138800
0.138900
0.139000
0.139100
0.139200
0.139300
0.139400
0.139500
0.139600
0.139700
0.139800
0.139900
0.140000
0.140100
0.140200
0.140300
0.140400
0.140500
0.140600
0.140700
0.140800
0.140900
0.141000
0.141100
0.141200
0.141300
0.141400
0.141500
0.141600
0.141700
0.141800
0.141900
0.142000
0.142100
0.142200
0.142300
0.142400
0.142500
0.142600
0.142700
0.142800
0.142900
0.143000
0.143100
0.143200
0.143300
0.143400
0.143500
0.143600
0.143700
0.143800
0.143900
0.144000
0.144100
0.144200
0.144300
0.144400
0.144500
0.144600
0.144700
0.144800
0.144900
0.145000
0.145100
0.145200
0.145300
0.145400
0.145500
0.145600
0.145700
0.145800
0.145900
0.146000
0.146100
0.146200
0.146300
0.146400
0.146500
0.146600
0.146700
0.146800
0.146900
0.147000
0.147100
0.147200
0.147300
0.147400
0.147500
0.147600
0.147700
0.147800
0.147900
0.148000
0.148100
0.148200
0.148300
0.148400
0.148500
0.148600
0.148700
0.148800
0.148900
0.149000
0.149100
0.149200
0.149300
0.149400
0.149500
0.149600
0.149700
0.149800
0.149900
0.150000
0.150100
0.150200
0.150300
0.150400
0.150500
0.150600
0.150700
0.150800
0.150900
0.151000
0.151100
0.151200
0.151300
0.151400
0.151500
0.151600
0.151700
0.151800
0.151900
0.152000
0.152100
0.152200
0.152300
0.152400
0.152500
0.152600
0.152700
0.152800
0.152900
0.153000
0.153100
0.153200
0.153300
0.153400
0.153500
0.153600
0.153700
0.153800
0.153900
0.154000
0.154100
0.154200
0.154300
0.154400
0.154500
0.154600
0.154700
0.154800
0.154900
0.155000
0.155100
0.155200
0.155300
0.155400
0.155500
0.155600
0.155700
0.155800
0.155900
0.156000
0.156100
0.156200
0.156300
0.156400
0.156500
0.156600
0.156700
0.156800
0.156900
0.157000
0.157100
0.157200
0.157300
0.157400
0.157500
0.157600
0.157700
0.157800
0.157900
0.158000
0.158100
0.158200
0.158300
0.158400
0.158500
0.158600
0.158700
0.158800
0.158900
0.159000
0.159100
0.159200
0.159300
0.159400
0.159500
0.159600
0.159700
0.159800
0.159900
0.160000
0.160100
0.160200
0.160300
0.160400
0.160500
0.160600
0.160700
0.160800
0.160900
0.161000
0.161100
0.161200
0.161300
0.161400
0.161500
0.161600
0.161700
0.161800
0.161900
0.162000
0.162100
0.162200
0.162300
0.162400
0.162500
0.162600
0.162700
0.162800
0.162900
0.163000
0.163100
0.163200
0.163300
0.163400
0.163500
0.163600
0.163700
0.163800
0.163900
0.164000
0.164100
0.164200
0.164300
0.164400
0.164500
0.164600
0.164700
0.164800
0.164900
0.165000
0.165100
0.165200
0.165300
0.165400
0.165500
0.165600
0.165700
0.165800
0.165900
0.166000
0.166100
0.166200
0.166300
0.166400
0.166500
0.166600
0.166700
0.166800
0.166900
0.167000
0.167100
0.167200
0.167300
0.167400
0.167500
0.167600
0.167700
0.167800
0.167900
0.168000
0.168100
0.168200
0.168300
0.168400
0.168500
0.168600
0.168700
0.168800
0.168900
0.169000
0.169100
0.169200
0.169300
0.169400
0.169500
0.169600
0.169700
0.169800
0.169900
0.170000
0.170100
0.170200
0.170300
0.170400
0.170500
0.170600
0.170700
0.170800
0.170900
0.171000
0.171100
0.171200
0.171300
0.171400
0.171500
0.171600
0.171700
0.171800
0.171900
0.172000
0.172100
0.172200
0.172300
0.172400
0.172500
0.172600
0.172700
0.172800
0.172900
0.173000
0.173100
0.173200
0.173300
0.173400
0.173500
0.173600
0.173700
0.173800
0.173900
0.174000
0.174100
0.174200
0.174300
0.174400
0.174500
0.174600
0.174700
0.174800
0.174900
0.175000
0.175100
0.175200
0.175300
0.175400
0.175500
0.175600
0.175700
0.175800
0.175900
0.176000
0.176100
0.176200
0.176300
0.176400
0.176500
0.176600
0.176700
0.176800
0.176900
0.177000
0.177100
0.177200
0.177300
0.177400
0.177500
0.177600
0.177700
0.177800
0.177900
0.178000
0.178100
0.178200
0.178300
0.178400
0.178500
0.178600
0.178700
0.178800
0.178900
0.179000
0.179100
0.179200
0.179300
0.179400
0.179500
0.179600
0.179700
0.179800
0.179900
0.180000
0.180100
0.180200
0.180300
0.180400
0.180500
0.180600
0.180700
0.180800
0.180900
0.181000
0.181100
0.181200
0.181300
0.181400
0.181500
0.181600
0.181700
0.181800
0.181900
0.182000
0.182100
0.182200
0.182300
0.182400
0.182500
0.182600
0.182700
0.182800
0.182900
0.183000
0.183100
0.183200
0.183300
0.183400
0.183500
0.183600
0.183700
0.183800
0.183900
0.184000
0.184100
0.184200
0.184300
0.184400
0.184500
0.184600
0.184700
0.184800
0.184900
0.185000
0.185100
0.185200
0.185300
0.185400
0.185500
0.185600
0.185700
0.185800
0.185900
0.186000
0.186100
0.186200
0.186300
0.186400
0.186500
0.186600
0.186700
0.186800
0.186900
0.187000
0.187100
0.187200
0.187300
0.187400
0.187500
0.187600
0.187700
0.187800
0.187900
0.188000
0.188100
0.188200
0.188300
0.188400
0.188500
0.188600
0.188700
0.188800
0.188900
0.189000
0.189100
0.189200
0.189300
0.189400
0.189500
0.189600
0.189700
0.189800
0.189900
0.190000
0.190100
0.190200
0.190300
0.190400
0.190500
0.190600
0.190700
0.190800
0.190900
0.191000
0.191100
0.191200
0.191300
0.191400
0.191500
0.191600
0.191700
0.191800
0.191900
0.192000
0.192100
0.192200
0.192300
0.192400
0.192500
0.192600
0.192700
0.192800
0.192900
0.193000
0.193100
0.193200
0.193300
0.193400
0.193500
0.193600
0.193700
0.193800
0.193900
0.194000
0.194100
0.194200
0.194300
0.194400
0.194500
0.194600
0.194700
0.194800
0.194900
0.195000
0.195100
0.195200
0.195300
0.195400
0.195500
0.195600
0.195700
0.195800
0.195900
0.196000
0.196100
0.196200
0.196300
0.196400
0.196500
0.196600
0.196700
0.196800
0.196900
0.197000
0.197100
0.197200
0.197300
0.197400
0.197500
0.197600
0.197700
0.197800
0.197900
0.198000
0.198100
0.198200
0.198300
0.198400
0.198500
0.198600
0.198700
0.198800
0.198900
0.199000
0.199100
0.199200
0.199300
0.199400
0.199500
0.199600
0.199700
0.199800
0.199900
0.200000
0.200100
0.200200
0.200300
0.200400
0.200500
0.200600
0.200700
0.200800
0.200900
0.201000
0.201100
0.201200
0.201300
0.201400
0.201500
0.201600
0.201700
0.201800
0.201900
0.202000
0.202100
0.202200
0.202300
0.202400
0.202500
0.202600
0.202700
0.202800
0.202900
0.203000
0.203100
0.203200
0.203300
0.203400
0.203500
0.203600
0.203700
0.203800
0.203900
0.204000
0.204100
0.204200
0.204300
0.204400
0.204500
0.204600
0.204700
0.204800
0.204900
0.205000
0.205100
0.205200
0.205300
0.205400
0.205500
0.205600
0.205700
0.205800
0.205900
0.206000
0.206100
0.206200
0.206300
0.206400
0.206500
0.206600
0.206700
0.206800
0.206900
0.207000
0.207100
0.207200
0.207300
0.207400
0.207500
0.207600
0.207700
0.207800
0.207900
0.208000
0.208100
0.208200
0.208300
0.208400
0.208500
0.208600
0.208700
0.208800
0.208900
0.209000
0.209100
0.209200
0.209300
0.209400
0.209500
0.209600
0.209700
0.209800
0.209900
0.210000
0.210100
0.210200
0.210300
0.210400
0.210500
0.210600
0.210700
0.210800
0.210900
0.211000
0.211100
0.211200
0.211300
0.211400
0.211500
0.211600
0.211700
0.211800
0.211900
0.212000
0.212100
0.212200
0.212300
0.212400
0.212500
0.212600
0.212700
0.212800
0.212900
0.213000
0.213100
0.213200
0.213300
0.213400
0.213500
0.213600
0.213700
0.213800
0.213900
0.214000
0.214100
0.214200
0.214300
0.214400
0.214500
0.214600
0.214700
0.214800
0.214900
0.215000
0.215100
0.215200
0.215300
0.215400
0.215500
0.215600
0.215700
0.215800
0.215900
0.216000
0.216100
0.216200
0.216300
0.216400
0.216500
0.216600
0.216700
0.216800
0.216900
0.217000
0.217100
0.217200
0.217300
0.217400
0.217500
0.217600
0.217700
0.217800
0.217900
0.218000
0.218100
0.218200
0.218300
0.218400
0.218500
0.218600
0.218700
0.218800
0.218900
0.219000
0.219100
0.219200
0.219300
0.219400
0.219500
0.219600
0.219700
0.219800
0.219900
0.220000
0.220100
0.220200
0.220300
0.220400
0.220500
0.220600
0.220700
0.220800
0.220900
0.221000
0.221100
0.221200
0.221300
0.221400
0.221500