# vtk DataFile Version 2.0
Generated Volume Mesh
ASCII
DATASET UNSTRUCTURED_GRID
POINTS 2428 float
-1.025983 1.080005 0.275513
0.012621 1.117311 0.033293
0.012724 0.997368 0.029681
-1.025550 0.963892 0.245209
-1.114152 1.046962 0.380010
-1.113677 0.933830 0.339929
-1.114166 1.046464 0.381368
-1.018923 0.894908 0.432702
-1.019394 1.002963 0.484896
0.006334 0.915445 0.641688
0.006694 0.816741 0.573445
0.000075 0.874271 0.697499
0.000499 0.779861 0.623423
-1.251325 0.872072 0.690941
-1.250696 0.777660 0.616870
-1.307539 0.889166 0.668105
-1.306911 0.792956 0.596386
-1.307372 0.793287 0.595937
-1.308000 0.889536 0.667604
-1.308321 0.800686 0.773086
-1.307666 0.713707 0.690413
-1.307202 0.714092 0.690012
-1.307857 0.801115 0.772638
-1.251515 0.820543 0.752114
-1.250867 0.731508 0.671661
-0.000203 0.822740 0.758669
0.000251 0.733708 0.678210
0.005554 0.774696 0.808740
0.006028 0.690681 0.723062
-1.021427 0.639322 0.915562
-1.020684 0.569472 0.817985
-1.029560 0.444877 1.027764
-1.028750 0.395324 0.918473
0.007472 0.207663 1.111539
0.008101 0.183467 0.994006
0.007573 0.140844 1.123253
0.008169 0.123665 1.004493
-1.028937 -0.112646 1.125943
-1.028256 -0.103012 1.006329
-1.028423 -0.332030 1.086564
-1.027780 -0.299437 0.971070
0.009150 -0.564205 0.996630
0.009622 -0.506667 0.891322
0.009276 -0.622732 0.962342
0.009763 -0.559027 0.860648
-1.027368 -0.817486 0.801758
-1.026831 -0.732743 0.716787
-1.114925 -0.891326 0.720131
-1.114407 -0.799650 0.642666
-1.114931 -0.892247 0.719017
-1.019157 -0.859843 0.562650
-1.019615 -0.959413 0.629635
0.006266 -1.049383 0.476785
0.006621 -0.940688 0.425934
-0.000094 -1.076792 0.413127
0.000370 -0.965237 0.368920
-1.251477 -1.066170 0.418035
-1.250577 -0.954602 0.373837
-1.307542 -1.054845 0.444518
-1.306667 -0.944402 0.397579
-1.307126 -0.944179 0.398093
-1.308000 -1.054597 0.445092
-1.308991 -1.100904 0.315175
-1.308009 -0.985655 0.281734
-1.307542 -0.985504 0.282267
-1.308524 -1.100735 0.315770
-1.252050 -1.093025 0.342692
-1.251090 -0.978656 0.306356
-0.000493 -1.103672 0.337785
0.000014 -0.989278 0.301441
0.005187 -1.122695 0.271102
0.005661 -1.006357 0.241689
-1.022422 -1.146031 0.105017
-1.021620 -1.026562 0.093725
-1.032185 -1.145204 -0.119435
-1.031116 -1.025818 -0.107301
0.002537 -1.100284 -0.375880
0.003797 -0.986522 -0.337700
0.002024 -1.076804 -0.439524
0.003326 -0.965503 -0.394672
-1.036470 -0.948824 -0.649692
-1.034776 -0.850171 -0.581368
-1.037079 -0.804726 -0.819729
-1.035320 -0.721144 -0.733621
0.000229 -0.615986 -0.984774
0.001923 -0.553408 -0.882386
0.000541 -0.557050 -1.018406
0.002269 -0.500617 -0.912509
-1.034104 -0.308061 -1.100816
-1.032326 -0.275970 -0.985187
0.000512 0.140574 -1.140535
0.005842 0.071664 -1.148467
0.006872 0.061730 -1.028889
0.001540 0.123399 -1.021762
-1.250954 0.151472 -1.125751
-1.249578 0.134297 -1.006985
-1.307531 0.123839 -1.128744
-1.306125 0.109601 -1.009590
-1.306594 0.109052 -1.009650
-1.308000 0.123226 -1.128812
-1.306486 0.258957 -1.104337
-1.305236 0.230618 -0.987730
-1.304780 0.230073 -0.987867
-1.306030 0.258348 -1.104490
-1.250075 0.230188 -1.111558
-1.248790 0.204799 -0.994273
0.001305 0.219292 -1.126336
0.002253 0.193893 -1.009044
0.007971 0.286496 -1.109664
0.008877 0.254049 -0.994144
-1.017215 0.453957 -1.039917
-1.016328 0.403899 -0.930853
-1.023775 0.647890 -0.926708
-1.023084 0.577565 -0.829460
0.014488 0.832453 -0.763813
0.014687 0.742448 -0.684449
0.014669 0.875762 -0.711661
0.014850 0.781217 -0.637779
-1.022283 1.005797 -0.497354
-1.022037 0.897327 -0.446024
-1.022812 1.081125 -0.287603
-1.022579 0.964791 -0.258164
0.013046 1.117339 -0.034522
0.013080 0.997392 -0.031049
-1.003550 1.059587 -0.362180
0.032565 1.112477 -0.111935
0.032576 0.993037 -0.100361
-1.003309 0.945511 -0.324960
-1.003408 1.036685 -0.426026
-1.003129 0.925000 -0.382149
0.033893 0.921500 -0.648931
0.034061 0.822164 -0.581598
0.033303 0.779129 -0.820370
0.033548 0.694680 -0.735111
-1.005165 0.583401 -0.970223
-1.004410 0.519828 -0.868454
-1.003185 0.524398 -1.004730
-1.002327 0.466995 -0.899346
0.022263 0.361524 -1.085892
0.023110 0.321201 -0.972859
0.088112 0.179323 -1.134952
0.089082 0.158022 -1.016858
0.018573 -0.007214 -1.152424
0.019690 -0.008902 -1.032430
-1.010585 -0.167089 -1.130838
-1.009066 -0.149697 -1.012107
-1.038467 -0.179016 -1.007015
-1.040095 -0.199837 -1.125178
-1.012291 -0.208670 -1.001723
-1.013979 -0.232872 -1.119253
0.020116 -0.487545 -1.052792
0.021815 -0.438385 -0.943323
0.019006 -0.681072 -0.942238
0.020742 -0.611718 -0.844309
-1.017878 -0.858782 -0.763986
-1.016122 -0.769576 -0.683728
-1.017690 -0.902638 -0.712241
-1.015956 -0.808833 -0.637408
0.020558 -1.045507 -0.510750
0.021931 -0.937478 -0.458501
0.022245 -1.122642 -0.301651
0.023447 -1.006557 -0.271245
-1.012463 -1.150599 -0.042103
-1.011453 -1.030666 -0.038058
-1.009470 -1.150861 0.026236
-1.008573 -1.030900 0.023150
0.018352 -1.139467 0.194023
0.018896 -1.021384 0.172628
0.086909 -1.091339 0.375397
0.087369 -0.978305 0.335097
0.020212 -1.013619 0.546957
0.020543 -0.908666 0.488774
-1.005951 -0.913246 0.693510
-1.005481 -0.818505 0.619860
-1.034427 -0.799545 0.643357
-1.034936 -0.892073 0.719758
-1.007787 -0.780391 0.666072
-1.008332 -0.870672 0.745131
0.028502 -0.687145 0.918984
0.028974 -0.616710 0.821828
0.028061 -0.494824 1.031637
0.028559 -0.444521 0.922687
-1.009557 -0.256571 1.105229
-1.008890 -0.231866 0.987803
-1.009708 -0.189788 1.117210
-1.009031 -0.172106 0.998521
0.026761 0.063670 1.131865
0.027351 0.054554 1.012209
0.026469 0.283210 1.093412
0.027122 0.251137 0.977776
-1.010417 0.514539 0.993436
-1.009605 0.457718 0.887744
-1.007933 0.573737 0.959301
-1.007155 0.510727 0.857173
0.018898 0.716567 0.862038
0.019418 0.638620 0.770799
0.087129 0.849076 0.728963
0.087556 0.757302 0.651648
0.020229 0.958028 0.575430
0.020575 0.854882 0.514100
-1.005358 1.034809 0.412877
-1.004916 0.923432 0.368219
-1.033702 0.934211 0.339878
-1.034170 1.046842 0.381232
-1.006903 0.944096 0.312031
-1.007388 1.057898 0.350102
0.031215 1.112363 0.110936
0.031371 0.992935 0.099225
0.119435 0.997877 0.000008
0.119386 1.117870 0.000009
0.039497 0.997841 -0.000517
0.039439 1.117842 -0.000460
-1.118465 -0.178317 -1.006027
-1.120068 -0.199211 -1.124207
-1.120047 -0.197788 -1.124458
-1.022981 -0.088540 -1.139443
-1.021594 -0.079301 -1.019794
-1.118445 -0.177041 -1.006252
-0.506549 1.105870 0.155476
-0.506227 0.987099 0.138394
-1.088493 1.069196 0.313353
-1.090175 0.953482 0.281375
-1.088019 0.909958 0.399384
-1.086793 1.018948 0.449686
-0.506406 0.962235 0.565275
-0.506054 0.858549 0.504870
0.035082 0.893669 0.672262
0.035437 0.797057 0.601085
-0.834219 0.873085 0.693141
-0.417073 0.873853 0.695347
-0.416549 0.779441 0.621275
-0.833615 0.778669 0.619069
-0.417324 0.822319 0.756517
-0.834426 0.821552 0.754313
-0.833800 0.732519 0.673859
-0.416774 0.733292 0.676063
0.034582 0.801005 0.782254
0.035006 0.714457 0.699130
-0.507837 0.709476 0.864835
-0.507249 0.632309 0.772939
-1.093498 0.482650 1.009310
-1.116902 0.547074 0.974410
-1.088670 0.608105 0.936658
-1.089879 0.539742 0.837960
-1.116001 0.488421 0.869724
-1.094776 0.431420 0.900747
-0.510968 0.328417 1.076564
-0.510233 0.291303 0.962454
0.034121 0.174397 1.118019
0.034738 0.153698 0.999827
-0.510542 0.014288 1.131829
-0.509933 0.010485 1.011895
-1.104754 -0.272178 1.101310
-1.105327 -0.174837 1.118779
-1.099808 -0.150532 1.000973
-1.108165 -0.237594 0.986000
-0.509442 -0.450690 1.048359
-0.508921 -0.405349 0.937259
0.035813 -0.593729 0.980036
0.036297 -0.533083 0.876499
-0.508845 -0.724890 0.887413
-0.508299 -0.650188 0.793504
-1.089652 -0.844908 0.773059
-1.091239 -0.758934 0.689269
-1.088425 -0.838865 0.592174
-1.087186 -0.937262 0.660925
-0.506423 -1.007255 0.555394
-0.506102 -0.902807 0.496307
0.034965 -1.064813 0.442552
0.035329 -0.954640 0.394986
-0.834385 -1.070186 0.416355
-0.417249 -1.073898 0.414664
-0.416507 -0.962355 0.370460
-0.833512 -0.958617 0.372153
-0.417780 -1.100771 0.339324
-0.834947 -1.097041 0.341011
-0.834016 -0.982673 0.304674
-0.416985 -0.986397 0.302991
0.034269 -1.113095 0.307093
0.034713 -0.997682 0.274232
-0.508397 -1.137989 0.188250
-0.507827 -1.019742 0.167822
-1.095803 -1.148162 -0.077034
-1.118672 -1.150374 -0.003636
-1.089926 -1.148478 0.067895
-1.091057 -1.028782 0.058465
-1.117605 -1.030389 -0.001681
-1.096846 -1.028562 -0.066700
-0.514715 -1.129692 -0.248935
-0.513526 -1.012396 -0.223631
0.028874 -1.089214 -0.408163
0.030162 -0.976637 -0.366629
-0.517161 -1.019277 -0.548008
-0.515683 -0.913651 -0.491070
-1.113149 -0.847214 -0.774618
-1.113231 -0.911151 -0.699167
-1.106602 -0.821441 -0.619097
-1.115419 -0.764789 -0.686825
-0.518440 -0.714417 -0.908020
-0.516761 -0.640890 -0.813194
0.026981 -0.587077 -1.002288
0.028692 -0.527547 -0.898101
-0.516908 -0.435720 -1.066172
-0.515076 -0.391203 -0.954738
0.035095 0.108605 -1.145015
0.036084 0.095053 -1.025783
-0.833854 0.147749 -1.131062
-0.416688 0.144094 -1.136080
-0.415467 0.126921 -1.017311
-0.832508 0.130575 -1.012289
-0.415852 0.222809 -1.121876
-0.832975 0.226466 -1.116861
-0.831722 0.201076 -0.999579
-0.414718 0.197417 -1.004605
0.036514 0.250120 -1.119478
0.037393 0.221166 -1.003024
-0.504381 0.371958 -1.077942
-0.503459 0.330564 -0.965303
-1.088012 0.613511 -0.950136
-1.111925 0.551381 -0.988673
-1.084193 0.488154 -1.023032
-1.085293 0.436382 -0.914704
-1.111020 0.489571 -0.885816
-1.089371 0.544664 -0.851789
-0.504346 0.744843 -0.851032
-0.503974 0.664192 -0.762180
0.041178 0.854481 -0.738142
0.041371 0.762173 -0.661484
-0.503480 0.947108 -0.607701
-0.503273 0.844968 -0.544723
-1.098831 1.064161 -0.347242
-1.098952 1.030727 -0.440306
-1.093809 0.916495 -0.402569
-1.102609 0.946981 -0.319700
-0.504598 1.106361 -0.162482
-0.504532 0.987517 -0.145939
-0.485526 1.093075 -0.239021
-0.485434 0.975613 -0.214483
-1.030083 1.048534 -0.394317
-1.029824 0.935606 -0.353752
-0.484829 0.985716 -0.540172
-0.484555 0.879546 -0.484221
0.109672 0.821837 -0.775959
0.110294 0.885029 -0.699860
0.105608 0.794473 -0.620619
0.113946 0.738578 -0.689040
[...]
POINT_DATA 2428
SCALARS var1 float
LOOKUP_TABLE default
0.000000
0.000100
0.000200
0.000300
0.000400
0.000500
0.000600
0.000700
0.000800
0.000900
0.001000
0.001100
0.001200
0.001300
0.001400
0.001500
0.001600
0.001700
0.001800
0.001900
0.002000
0.002100
0.002200
0.002300
0.002400
0.002500
0.002600
0.002700
0.002800
0.002900
0.003000
0.003100
0.003200
0.003300
0.003400
0.003500
0.003600
0.003700
0.003800
0.003900
0.004000
0.004100
0.004200
0.004300
0.004400
0.004500
0.004600
0.004700
0.004800
0.004900
0.005000
0.005100
0.005200
0.005300
0.005400
0.005500
0.005600
0.005700
0.005800
0.005900
0.006000
0.006100
0.006200
0.006300
0.006400
0.006500
0.006600
0.006700
0.006800
0.006900
0.007000
0.007100
0.007200
0.007300
0.007400
0.007500
0.007600
0.007700
0.007800
0.007900
0.008000
0.008100
0.008200
0.008300
0.008400
0.008500
0.008600
0.008700
0.008800
0.008900
0.009000
0.009100
0.009200
0.009300
0.009400
0.009500
0.009600
0.009700
0.009800
0.009900
0.010000
0.010100
0.010200
0.010300
0.010400
0.010500
0.010600
0.010700
0.010800
0.010900
0.011000
0.011100
0.011200
0.011300
0.011400
0.011500
0.011600
0.011700
0.011800
0.011900
0.012000
0.012100
0.012200
0.012300
0.012400
0.012500
0.012600
0.012700
0.012800
0.012900
0.013000
0.013100
0.013200
0.013300
0.013400
0.013500
0.013600
0.013700
0.013800
0.013900
0.014000
0.014100
0.014200
0.014300
0.014400
0.014500
0.014600
0.014700
0.014800
0.014900
0.015000
0.015100
0.015200
0.015300
0.015400
0.015500
0.015600
0.015700
0.015800
0.015900
0.016000
0.016100
0.016200
0.016300
0.016400
0.016500
0.016600
0.016700
0.016800
0.016900
0.017000
0.017100
0.017200
0.017300
0.017400
0.017500
0.017600
0.017700
0.017800
0.017900
0.018000
0.018100
0.018200
0.018300
0.018400
0.018500
0.018600
0.018700
0.018800
0.018900
0.019000
0.019100
0.019200
0.019300
0.019400
0.019500
0.019600
0.019700
0.019800
0.019900
0.020000
0.020100
0.020200
0.020300
0.020400
0.020500
0.020600
0.020700
0.020800
0.020900
0.021000
0.021100
0.021200
0.021300
0.021400
0.021500
0.021600
0.021700
0.021800
0.021900
0.022000
0.022100
0.022200
0.022300
0.022400
0.022500
0.022600
0.022700
0.022800
0.022900
0.023000
0.023100
0.023200
0.023300
0.023400
0.023500
0.023600
0.023700
0.023800
0.023900
0.024000
0.024100
0.024200
0.024300
0.024400
0.024500
0.024600
0.024700
0.024800
0.024900
0.025000
0.025100
0.025200
0.025300
0.025400
0.025500
0.025600
0.025700
0.025800
0.025900
0.026000
0.026100
0.026200
0.026300
0.026400
0.026500
0.026600
0.026700
0.026800
0.026900
0.027000
0.027100
0.027200
0.027300
0.027400
0.027500
0.027600
0.027700
0.027800
0.027900
0.028000
0.028100
0.028200
0.028300
0.028400
0.028500
0.028600
0.028700
0.028800
0.028900
0.029000
0.029100
0.029200
0.029300
0.029400
0.029500
0.029600
0.029700
0.029800
0.029900
0.030000
0.030100
0.030200
0.030300
0.030400
0.030500
0.030600
0.030700
0.030800
0.030900
0.031000
0.031100
0.031200
0.031300
0.031400
0.031500
0.031600
0.031700
0.031800
0.031900
0.032000
0.032100
0.032200
0.032300
0.032400
0.032500
0.032600
0.032700
0.032800
0.032900
0.033000
0.033100
0.033200
0.033300
0.033400
0.033500
0.033600
0.033700
0.033800
0.033900
0.034000
0.034100
0.034200
0.034300
0.034400
0.034500
0.034600
0.034700
0.034800
0.034900
0.035000
0.035100
0.035200
0.035300
0.035400
0.035500
0.035600
0.035700
0.035800
0.035900
0.036000
0.036100
0.036200
0.036300
0.036400
0.036500
0.036600
0.036700
0.036800
0.036900
0.037000
0.037100
0.037200
0.037300
0.037400
0.037500
0.037600
0.037700
0.037800
0.037900
0.038000
0.038100
0.038200
0.038300
0.038400
0.038500
0.038600
0.038700
0.038800
0.038900
0.039000
0.039100
0.039200
0.039300
0.039400
0.039500
0.039600
0.039700
0.039800
0.039900
0.040000
0.040100
0.040200
0.040300
0.040400
0.040500
0.040600
0.040700
0.040800
0.040900
0.041000
0.041100
0.041200
0.041300
0.041400
0.041500
0.041600
0.041700
0.041800
0.041900
0.042000
0.042100
0.042200
0.042300
0.042400
0.042500
0.042600
0.042700
0.042800
0.042900
0.043000
0.043100
0.043200
0.043300
0.043400
0.043500
0.043600
0.043700
0.043800
0.043900
0.044000
0.044100
0.044200
0.044300
0.044400
0.044500
0.044600
0.044700
0.044800
0.044900
0.045000
0.045100
0.045200
0.045300
0.045400
0.045500
0.045600
0.045700
0.045800
0.045900
0.046000
0.046100
0.046200
0.046300
0.046400
0.046500
0.046600
0.046700
0.046800
0.046900
0.047000
0.047100
0.047200
0.047300
0.047400
0.047500
0.047600
0.047700
0.047800
0.047900
0.048000
0.048100
0.048200
0.048300
0.048400
0.048500
0.048600
0.048700
0.048800
0.048900
0.049000
0.049100
0.049200
0.049300
0.049400
0.049500
0.049600
0.049700
0.049800
0.049900
0.050000
0.050100
0.050200
0.050300
0.050400
0.050500
0.050600
0.050700
0.050800
0.050900
0.051000
0.051100
0.051200
0.051300
0.051400
0.051500
0.051600
0.051700
0.051800
0.051900
0.052000
0.052100
0.052200
0.052300
0.052400
0.052500
0.052600
0.052700
0.052800
0.052900
0.053000
0.053100
0.053200
0.053300
0.053400
0.053500
0.053600
0.053700
0.053800
0.053900
0.054000
0.054100
0.054200
0.054300
0.054400
0.054500
0.054600
0.054700
0.054800
0.054900
0.055000
0.055100
0.055200
0.055300
0.055400
0.055500
0.055600
0.055700
0.055800
0.055900
0.056000
0.056100
0.056200
0.056300
0.056400
0.056500
0.056600
0.056700
0.056800
0.056900
0.057000
0.057100
0.057200
0.057300
0.057400
0.057500
0.057600
0.057700
0.057800
0.057900
0.058000
0.058100
0.058200
0.058300
0.058400
0.058500
0.058600
0.058700
0.058800
0.058900
0.059000
0.059100
0.059200
0.059300
0.059400
0.059500
0.059600
0.059700
0.059800
0.059900
0.060000
0.060100
0.060200
0.060300
0.060400
0.060500
0.060600
0.060700
0.060800
0.060900
0.061000
0.061100
0.061200
0.061300
0.061400
0.061500
0.061600
0.061700
0.061800
0.061900
0.062000
0.062100
0.062200
0.062300
0.062400
0.062500
0.062600
0.062700
0.062800
0.062900
0.063000
0.063100
0.063200
0.063300
0.063400
0.063500
0.063600
0.063700
0.063800
0.063900
0.064000
0.064100
0.064200
0.064300
0.064400
0.064500
0.064600
0.064700
0.064800
0.064900
0.065000
0.065100
0.065200
0.065300
0.065400
0.065500
0.065600
0.065700
0.065800
0.065900
0.066000
0.066100
0.066200
0.066300
0.066400
0.066500
0.066600
0.066700
0.066800
0.066900
0.067000
0.067100
0.067200
0.067300
0.067400
0.067500
0.067600
0.067700
0.067800
0.067900
0.068000
0.068100
0.068200
0.068300
0.068400
0.068500
0.068600
0.068700
0.068800
0.068900
0.069000
0.069100
0.069200
0.069300
0.069400
0.069500
0.069600
0.069700
0.069800
0.069900
0.070000
0.070100
0.070200
0.070300
0.070400
0.070500
0.070600
0.070700
0.070800
0.070900
0.071000
0.071100
0.071200
0.071300
0.071400
0.071500
0.071600
0.071700
0.071800
0.071900
0.072000
0.072100
0.072200
0.072300
0.072400
0.072500
0.072600
0.072700
0.072800
0.072900
0.073000
0.073100
0.073200
0.073300
0.073400
0.073500
0.073600
0.073700
0.073800
0.073900
0.074000
0.074100
0.074200
0.074300
0.074400
0.074500
0.074600
0.074700
0.074800
0.074900
0.075000
0.075100
0.075200
0.075300
0.075400
0.075500
0.075600
0.075700
0.075800
0.075900
0.076000
0.076100
0.076200
0.076300
0.076400
0.076500
0.076600
0.076700
0.076800
0.076900
0.077000
0.077100
0.077200
0.077300
0.077400
0.077500
0.077600
0.077700
0.077800
0.077900
0.078000
0.078100
0.078200
0.078300
0.078400
0.078500
0.078600
0.078700
0.078800
0.078900
0.079000
0.079100
0.079200
0.079300
0.079400
0.079500
0.079600
0.079700
0.079800
0.079900
0.080000
0.080100
0.080200
0.080300
0.080400
0.080500
0.080600
0.080700
0.080800
0.080900
0.081000
0.081100
0.081200
0.081300
0.081400
0.081500
0.081600
0.081700
0.081800
0.081900
0.082000
0.082100
0.082200
0.082300
0.082400
0.082500
0.082600
0.082700
0.082800
0.082900
0.083000
0.083100
0.083200
0.083300
0.083400
0.083500
0.083600
0.083700
0.083800
0.083900
0.084000
0.084100
0.084200
0.084300
0.084400
0.084500
0.084600
0.084700
0.084800
0.084900
0.085000
0.085100
0.085200
0.085300
0.085400
0.085500
0.085600
0.085700
0.085800
0.085900
0.086000
0.086100
0.086200
0.086300
0.086400
0.086500
0.086600
0.086700
0.086800
0.086900
0.087000
0.087100
0.087200
0.087300
0.087400
0.087500
0.087600
0.087700
0.087800
0.087900
0.088000
0.088100
0.088200
0.088300
0.088400
0.088500
0.088600
0.088700
0.088800
0.088900
0.089000
0.089100
0.089200
0.089300
0.089400
0.089500
0.089600
0.089700
0.089800
0.089900
0.090000
0.090100
0.090200
0.090300
0.090400
0.090500
0.090600
0.090700
0.090800
0.090900
0.091000
0.091100
0.091200
0.091300
0.091400
0.091500
0.091600
0.091700
0.091800
0.091900
0.092000
0.092100
0.092200
0.092300
0.092400
0.092500
0.092600
0.092700
0.092800
0.092900
0.093000
0.093100
0.093200
0.093300
0.093400
0.093500
0.093600
0.093700
0.093800
0.093900
0.094000
0.094100
0.094200
0.094300
0.094400
0.094500
0.094600
0.094700
0.094800
0.094900
0.095000
0.095100
0.095200
0.095300
0.095400
0.095500
0.095600
0.095700
0.095800
0.095900
0.096000
0.096100
0.096200
0.096300
0.096400
0.096500
0.096600
0.096700
0.096800
0.096900
0.097000
0.097100
0.097200
0.097300
0.097400
0.097500
0.097600
0.097700
0.097800
0.097900
0.098000
0.098100
0.098200
0.098300
0.098400
0.098500
0.098600
0.098700
0.098800
0.098900
0.099000
0.099100
0.099200
0.099300
0.099400
0.099500
0.099600
0.099700
0.099800
0.099900
0.100000
0.100100
0.100200
0.100300
0.100400
0.100500
0.100600
0.100700
0.100800
0.100900
0.101000
0.101100
0.101200
0.101300
0.101400
0.101500
0.101600
0.101700
0.101800
0.101900
0.102000
0.102100
0.102200
0.102300
0.102400
0.102500
0.102600
0.102700
0.102800
0.102900
0.103000
0.103100
0.103200
0.103300
0.103400
0.103500
0.103600
0.103700
0.103800
0.103900
0.104000
0.104100
0.104200
0.104300
0.104400
0.104500
0.104600
0.104700
0.104800
0.104900
0.105000
0.105100
0.105200
0.105300
0.105400
0.105500
0.105600
0.105700
0.105800
0.105900
0.106000
0.106100
0.106200
0.106300
0.106400
0.106500
0.106600
0.106700
0.106800
0.106900
0.107000
0.107100
0.107200
0.107300
0.107400
0.107500
0.107600
0.107700
0.107800
0.107900
0.108000
0.108100
0.108200
0.108300
0.108400
0.108500
0.108600
0.108700
0.108800
0.108900
0.109000
0.109100
0.109200
0.109300
0.109400
0.109500
0.109600
0.109700
0.109800
0.109900
0.110000
0.110100
0.110200
0.110300
0.110400
0.110500
0.110600
0.110700
0.110800
0.110900
0.111000
0.111100
0.111200
0.111300
0.111400
0.111500
0.111600
0.111700
0.111800
0.111900
0.112000
0.112100
0.112200
0.112300
0.112400
0.112500
0.112600
0.112700
0.112800
0.112900
0.113000
0.113100
0.113200
0.113300
0.113400
0.113500
0.113600
0.113700
0.113800
0.113900
0.114000
0.114100
0.114200
0.114300
0.114400
0.114500
0.114600
0.114700
0.114800
0.114900
0.115000
0.115100
0.115200
0.115300
0.115400
0.115500
0.115600
0.115700
0.115800
0.115900
0.116000
0.116100
0.116200
0.116300
0.116400
0.116500
0.116600
0.116700
0.116800
0.116900
0.117000
0.117100
0.117200
0.117300
0.117400
0.117500
0.117600
0.117700
0.117800
0.117900
0.118000
0.118100
0.118200
0.118300
0.118400
0.118500
0.118600
0.118700
0.118800
0.118900
0.119000
0.119100
0.119200
0.119300
0.119400
0.119500
0.119600
0.119700
0.119800
0.119900
0.120000
0.120100
0.120200
0.120300
0.120400
0.120500
0.120600
0.120700
0.120800
0.120900
0.121000
0.121100
0.121200
0.121300
0.121400
0.121500
0.121600
0.121700
0.121800
0.121900
0.122000
0.122100
0.122200
0.122300
0.122400
0.122500
0.122600
0.122700
0.122800
0.122900
0.123000
0.123100
0.123200
0.123300
0.123400
0.123500
0.123600
0.123700
0.123800
0.123900
0.124000
0.124100
0.124200
0.124300
0.124400
0.124500
0.124600
0.124700
0.124800
0.124900
0.125000
0.125100
0.125200
0.125300
0.125400
0.125500
0.125600
0.125700
0.125800
0.125900
0.126000
0.126100
0.126200
0.126300
0.126400
0.126500
0.126600
0.126700
0.126800
0.126900
0.127000
0.127100
0.127200
0.127300
0.127400
0.127500
0.127600
0.127700
0.127800
0.127900
0.128000
0.128100
0.128200
0.128300
0.128400
0.128500
0.128600
0.128700
0.128800
0.128900
0.129000
0.129100
0.129200
0.129300
0.129400
0.129500
0.129600
0.129700
0.129800
0.129900
0.130000
0.130100
0.130200
0.130300
0.130400
0.130500
0.130600
0.130700
0.130800
0.130900
0.131000
0.131100
0.131200
0.131300
0.131400
0.131500
0.131600
0.131700
0.131800
0.131900
0.132000
0.132100
0.132200
0.132300
0.132400
0.132500
0.132600
0.132700
0.132800
0.132900
0.133000
0.133100
0.133200
0.133300
0.133400
0.133500
0.133600
0.133700
0.133800
0.133900
0.134000
0.134100
0.134200
0.134300
0.134400
0.134500
0.134600
0.134700
0.134800
0.134900
0.135000
0.135100
0.135200
0.135300
0.135400
0.135500
0.135600
0.135700
0.135800
0.135900
0.136000
0.136100
0.136200
0.136300
0.136400
0.136500
0.136600
0.136700
0.136800
0.136900
0.137000
0.137100
0.137200
0.137300
0.137400
0.137500
0.137600
0.137700
0.137800
0.137900
0.138000
0.138100
0.138200
0.138300
0.138400
0.138500
0.138600
0.138700
0.138800
0.138900
0.139000
0.139100
0.139200
0.139300
0.139400
0.139500
0.139600
0.139700
0.139800
0.139900
0.140000
0.140100
0.140200
0.140300
0.140400
0.140500
0.140600
0.140700
0.140800
0.140900
0.141000
0.141100
0.141200
0.141300
0.141400
0.141500
0.141600
0.141700
0.141800
0.141900
0.142000
0.142100
0.142200
0.142300
0.142400
0.142500
0.142600
0.142700
0.142800
0.142900
0.143000
0.143100
0.143200
0.143300
0.143400
0.143500
0.143600
0.143700
0.143800
0.143900
0.144000
0.144100
0.144200
0.144300
0.144400
0.144500
0.144600
0.144700
0.144800
0.144900
0.145000
0.145100
0.145200
0.145300
0.145400
0.145500
0.145600
0.145700
0.145800
0.145900
0.146000
0.146100
0.146200
0.146300
0.146400
0.146500
0.146600
0.146700
0.146800
0.146900
0.147000
0.147100
0.147200
0.147300
0.147400
0.147500
0.147600
0.147700
0.147800
0.147900
0.148000
0.148100
0.148200
0.148300
0.148400
0.148500
0.148600
0.148700
0.148800
0.148900
0.149000
0.149100
0.149200
0.149300
0.149400
0.149500
0.149600
0.149700
0.149800
0.149900
0.150000
0.150100
0.150200
0.150300
0.150400
0.150500
0.150600
0.150700
0.150800
0.150900
0.151000
0.151100
0.151200
0.151300
0.151400
0.151500
0.151600
0.151700
0.151800
0.151900
0.152000
0.152100
0.152200
0.152300
0.152400
0.152500
0.152600
0.152700
0.152800
0.152900
0.153000
0.153100
0.153200
0.153300
0.153400
0.153500
0.153600
0.153700
0.153800
0.153900
0.154000
0.154100
0.154200
0.154300
0.154400
0.154500
0.154600
0.154700
0.154800
0.154900
0.155000
0.155100
0.155200
0.155300
0.155400
0.155500
0.155600
0.155700
0.155800
0.155900
0.156000
0.156100
0.156200
0.156300
0.156400
0.156500
0.156600
0.156700
0.156800
0.156900
0.157000
0.157100
0.157200
0.157300
0.157400
0.157500
0.157600
0.157700
0.157800
0.157900
0.158000
0.158100
0.158200
0.158300
0.158400
0.158500
0.158600
0.158700
0.158800
0.158900
0.159000
0.159100
0.159200
0.159300
0.159400
0.159500
0.159600
0.159700
0.159800
0.159900
0.160000
0.160100
0.160200
0.160300
0.160400
0.160500
0.160600
0.160700
0.160800
0.160900
0.161000
0.161100
0.161200
0.161300
0.161400
0.161500
0.161600
0.161700
0.161800
0.161900
0.162000
0.162100
0.162200
0.162300
0.162400
0.162500
0.162600
0.162700
0.162800
0.162900
0.163000
0.163100
0.163200
0.163300
0.163400
0.163500
0.163600
0.163700
0.163800
0.163900
0.164000
0.164100
0.164200
0.164300
0.164400
0.164500
0.164600
0.164700
0.164800
0.164900
0.165000
0.165100
0.165200
0.165300
0.165400
0.165500
0.165600
0.165700
0.165800
0.165900
0.166000
0.166100
0.166200
0.166300
0.166400
0.166500
0.166600
0.166700
0.166800
0.166900
0.167000
0.167100
0.167200
0.167300
0.167400
0.167500
0.167600
0.167700
0.167800
0.167900
0.168000
0.168100
0.168200
0.168300
0.168400
0.168500
0.168600
0.168700
0.168800
0.168900
0.169000
0.169100
0.169200
0.169300
0.169400
0.169500
0.169600
0.169700
0.169800
0.169900
0.170000
0.170100
0.170200
0.170300
0.170400
0.170500
0.170600
0.170700
0.170800
0.170900
0.171000
0.171100
0.171200
0.171300
0.171400
0.171500
0.171600
0.171700
0.171800
0.171900
0.172000
0.172100
0.172200
0.172300
0.172400
0.172500
0.172600
0.172700
0.172800
0.172900
0.173000
0.173100
0.173200
0.173300
0.173400
0.173500
0.173600
0.173700
0.173800
0.173900
0.174000
0.174100
0.174200
0.174300
0.174400
0.174500
0.174600
0.174700
0.174800
0.174900
0.175000
0.175100
0.175200
0.175300
0.175400
0.175500
0.175600
0.175700
0.175800
0.175900
0.176000
0.176100
0.176200
0.176300
0.176400
0.176500
0.176600
0.176700
0.176800
0.176900
0.177000
0.177100
0.177200
0.177300
0.177400
0.177500
0.177600
0.177700
0.177800
0.177900
0.178000
0.178100
0.178200
0.178300
0.178400
0.178500
0.178600
0.178700
0.178800
0.178900
0.179000
0.179100
0.179200
0.179300
0.179400
0.179500
0.179600
0.179700
0.179800
0.179900
0.180000
0.180100
0.180200
0.180300
0.180400
0.180500
0.180600
0.180700
0.180800
0.180900
0.181000
0.181100
0.181200
0.181300
0.181400
0.181500
0.181600
0.181700
0.181800
0.181900
0.182000
0.182100
0.182200
0.182300
0.182400
0.182500
0.182600
0.182700
0.182800
0.182900
0.183000
0.183100
0.183200
0.183300
0.183400
0.183500
0.183600
0.183700
0.183800
0.183900
0.184000
0.184100
0.184200
0.184300
0.184400
0.184500
0.184600
0.184700
0.184800
0.184900
0.185000
0.185100
0.185200
0.185300
0.185400
0.185500
0.185600
0.185700
0.185800
0.185900
0.186000
0.186100
0.186200
0.186300
0.186400
0.186500
0.186600
0.186700
0.186800
0.186900
0.187000
0.187100
0.187200
0.187300
0.187400
0.187500
0.187600
0.187700
0.187800
0.187900
0.188000
0.188100
0.188200
0.188300
0.188400
0.188500
0.188600
0.188700
0.188800
0.188900
0.189000
0.189100
0.189200
0.189300
0.189400
0.189500
0.189600
0.189700
0.189800
0.189900
0.190000
0.190100
0.190200
0.190300
0.190400
0.190500
0.190600
0.190700
0.190800
0.190900
0.191000
0.191100
0.191200
0.191300
0.191400
0.191500
0.191600
0.191700
0.191800
0.191900
0.192000
0.192100
0.192200
0.192300
0.192400
0.192500
0.192600
0.192700
0.192800
0.192900
0.193000
0.193100
0.193200
0.193300
0.193400
0.193500
0.193600
0.193700
0.193800
0.193900
0.194000
0.194100
0.194200
0.194300
0.194400
0.194500
0.194600
0.194700
0.194800
0.194900
0.195000
0.195100
0.195200
0.195300
0.195400
0.195500
0.195600
0.195700
0.195800
0.195900
0.196000
0.196100
0.196200
0.196300
0.196400
0.196500
0.196600
0.196700
0.196800
0.196900
0.197000
0.197100
0.197200
0.197300
0.197400
0.197500
0.197600
0.197700
0.197800
0.197900
0.198000
0.198100
0.198200
0.198300
0.198400
0.198500
0.198600
0.198700
0.198800
0.198900
0.199000
0.199100
0.199200
0.199300
0.199400
0.199500
0.199600
0.199700
0.199800
0.199900
0.200000
0.200100
0.200200
0.200300
0.200400
0.200500
0.200600
0.200700
0.200800
0.200900
0.201000
0.201100
0.201200
0.201300
0.201400
0.201500
0.201600
0.201700
0.201800
0.201900
0.202000
0.202100
0.202200
0.202300
0.202400
0.202500
0.202600
0.202700
0.202800
0.202900
0.203000
0.203100
0.203200
0.203300
0.203400
0.203500
0.203600
0.203700
0.203800
0.203900
0.204000
0.204100
0.204200
0.204300
0.204400
0.204500
0.204600
0.204700
0.204800
0.204900
0.205000
0.205100
0.205200
0.205300
0.205400
0.205500
0.205600
0.205700
0.205800
0.205900
0.206000
0.206100
0.206200
0.206300
0.206400
0.206500
0.206600
0.206700
0.206800
0.206900
0.207000
0.207100
0.207200
0.207300
0.207400
0.207500
0.207600
0.207700
0.207800
0.207900
0.208000
0.208100
0.208200
0.208300
0.208400
0.208500
0.208600
0.208700
0.208800
0.208900
0.209000
0.209100
0.209200
0.209300
0.209400
0.209500
0.209600
0.209700
0.209800
0.209900
0.210000
0.210100
0.210200
0.210300
0.210400
0.210500
0.210600
0.210700
0.210800
0.210900
0.211000
0.211100
0.211200
0.211300
0.211400
0.211500
0.211600
0.211700
0.211800
0.211900
0.212000
0.212100
0.212200
0.212300
0.212400
0.212500
0.212600
0.212700
0.212800
0.212900
0.213000
0.213100
0.213200
0.213300
0.213400
0.213500
0.213600
0.213700
0.213800
0.213900
0.214000
0.214100
0.214200
0.214300
0.214400
0.214500
0.214600
0.214700
0.214800
0.214900
0.215000
0.215100
0.215200
0.215300
0.215400
0.215500
0.215600
0.215700
0.215800
0.215900
0.216000
0.216100
0.216200
0.216300
0.216400
0.216500
0.216600
0.216700
0.216800
0.216900
0.217000
0.217100
0.217200
0.217300
0.217400
0.217500
0.217600
0.217700
0.217800
0.217900
0.218000
0.218100
0.218200
0.218300
0.218400
0.218500
0.218600
0.218700
0.218800
0.218900
0.219000
0.219100
0.219200
0.219300
0.219400
0.219500
0.219600
0.219700
0.219800
0.219900
0.220000
0.220100
0.220200
0.220300
0.220400
0.220500
0.220600
0.220700
0.220800
0.220900
0.221000
0.221100
0.221200
0.221300
0.221400
0.221500