# vtk DataFile Version 2.0
Generated Volume Mesh
ASCII
DATASET UNSTRUCTURED_GRID
POINTS 2428 float
-1.023043 1.018584 0.254595
0.020338 1.058503 0.032051
0.020629 0.938567 0.028317
-1.021817 0.902637 0.223634
-1.112619 0.984667 0.357755
-1.111267 0.871745 0.316991
-1.112650 0.984161 0.359111
-1.017398 0.832604 0.410606
-1.018730 0.940330 0.463485
0.006919 0.856377 0.624081
0.007939 0.758027 0.555329
0.000211 0.814987 0.679476
0.001411 0.720950 0.604917
-1.251452 0.808771 0.660936
-1.249674 0.714728 0.586391
-1.307541 0.825711 0.637646
-1.305767 0.729861 0.565445
-1.306226 0.730193 0.564993
-1.308000 0.826082 0.637142
-1.308908 0.736708 0.742182
-1.307056 0.650140 0.659073
-1.306590 0.650529 0.658678
-1.308442 0.737141 0.741740
-1.251990 0.756937 0.721850
-1.250156 0.668302 0.640952
-0.000574 0.763148 0.740383
0.000709 0.674521 0.659467
0.004714 0.714974 0.790138
0.006056 0.631387 0.704047
-1.024477 0.581896 0.881643
-1.022375 0.512303 0.783879
-1.033155 0.387249 0.993215
-1.030865 0.337988 0.883790
0.005781 0.160389 1.085048
0.007560 0.136509 0.967455
0.006066 0.093733 1.096558
0.007752 0.076936 0.977750
-1.031392 -0.156318 1.088253
-1.029468 -0.146003 0.968691
-1.029941 -0.375395 1.047572
-1.028122 -0.342029 0.932285
0.010525 -0.598695 0.967668
0.011860 -0.539997 0.862987
0.010880 -0.656645 0.932805
0.012257 -0.591733 0.831863
-1.026958 -0.839701 0.766703
-1.025440 -0.753664 0.682998
-1.114805 -0.911697 0.683596
-1.113332 -0.818808 0.607514
-1.114814 -0.912602 0.682466
-1.018059 -0.878359 0.527025
-1.019353 -0.978980 0.592480
0.006728 -1.070270 0.443259
0.007730 -0.960868 0.393897
-0.000265 -1.096596 0.379450
0.001047 -0.984445 0.336752
-1.251883 -1.066566 0.393326
-1.249338 -0.954381 0.350652
-1.307551 -1.054597 0.420380
-1.305078 -0.943499 0.374947
-1.305529 -0.943275 0.375468
-1.308000 -1.054349 0.420961
-1.310802 -1.098880 0.290393
-1.308024 -0.983161 0.258527
-1.307551 -0.983026 0.259058
-1.310328 -1.098728 0.290987
-1.253502 -1.092391 0.317608
-1.250787 -0.977512 0.282834
-0.001393 -1.122489 0.303734
0.000041 -1.007543 0.268940
0.003677 -1.140593 0.237025
0.005017 -1.023873 0.209114
-1.027290 -1.149098 0.088923
-1.025021 -1.029522 0.078700
-1.040576 -1.146207 -0.135310
-1.037554 -1.026925 -0.122120
-0.008170 -1.115520 -0.403486
-0.004609 -1.002087 -0.364332
-0.009622 -1.091551 -0.466741
-0.005940 -0.980648 -0.420898
-1.052689 -0.949256 -0.648874
-1.047900 -0.851206 -0.579667
-1.054412 -0.803630 -0.817510
-1.049439 -0.720872 -0.730590
-0.014696 -0.637574 -0.996223
-0.009906 -0.575847 -0.893317
-0.013813 -0.578469 -1.029231
-0.008929 -0.522895 -0.922884
-1.046000 -0.307633 -1.087864
-1.040974 -0.275687 -0.972196
0.001448 0.106476 -1.143481
0.005529 0.037840 -1.152136
0.008440 0.026946 -1.032653
0.004354 0.088281 -1.024839
-1.250403 0.137288 -1.101686
-1.246513 0.119090 -0.983063
-1.307519 0.110600 -1.103603
-1.303546 0.095338 -0.984564
-1.304025 0.094797 -0.984618
-1.308000 0.109995 -1.103665
-1.303719 0.245522 -1.078022
-1.300186 0.216180 -0.961654
-1.299741 0.215629 -0.961806
-1.303277 0.244908 -1.078191
-1.247918 0.215884 -1.086816
-1.244286 0.189487 -0.969745
0.003688 0.185082 -1.128596
0.006370 0.158655 -1.011504
0.011547 0.251746 -1.111471
0.014110 0.218263 -0.996258
-1.012570 0.418068 -1.025237
-1.010061 0.366843 -0.916699
-1.016800 0.610714 -0.909862
-1.014845 0.539302 -0.813373
0.025616 0.785029 -0.761156
0.026177 0.694236 -0.682686
0.026128 0.827630 -0.708783
0.026639 0.732332 -0.635891
-1.012583 0.948182 -0.499040
-1.011886 0.839297 -0.448570
-1.014078 1.021752 -0.288777
-1.013419 0.905180 -0.260260
0.021540 1.058581 -0.035527
0.021636 0.938637 -0.032185
-0.994693 1.000879 -0.363502
0.041651 1.053812 -0.112792
0.041681 0.934363 -0.101323
-0.994012 0.886515 -0.327191
-0.994291 0.978619 -0.427353
-0.993503 0.866580 -0.384394
0.045404 0.872755 -0.645634
0.045880 0.772697 -0.579343
0.043738 0.732206 -0.818397
0.044430 0.646902 -0.733973
-0.999258 0.546577 -0.954392
-0.997123 0.481920 -0.853309
-0.998016 0.488129 -0.989508
-0.995593 0.429607 -0.884722
0.026841 0.326456 -1.087244
0.029234 0.285044 -0.974578
0.089818 0.143836 -1.139073
0.092561 0.121507 -1.021164
0.016407 -0.041333 -1.156958
0.019565 -0.043919 -1.036962
-1.018937 -0.167532 -1.118059
-1.014644 -0.150171 -0.999328
-1.044815 -0.178529 -0.993745
-1.049416 -0.199229 -1.111900
-1.019404 -0.208919 -0.989031
-1.024178 -0.232951 -1.106588
0.006456 -0.509075 -1.063426
0.011259 -0.460800 -0.953555
0.003318 -0.703449 -0.954535
0.008226 -0.634892 -0.856039
-1.035199 -0.858585 -0.762630
-1.030235 -0.770143 -0.681531
-1.034667 -0.902793 -0.711457
-1.029765 -0.809673 -0.635771
0.007706 -1.059875 -0.538103
0.011586 -0.952297 -0.484910
0.012475 -1.138795 -0.329769
0.015873 -1.022961 -0.298386
-1.019891 -1.152572 -0.058278
-1.017034 -1.032670 -0.053181
-1.015786 -1.153418 0.009863
-1.013251 -1.033426 0.007850
0.015783 -1.156532 0.159597
0.017322 -1.038163 0.139695
0.086419 -1.111479 0.340991
0.087718 -0.997885 0.302220
0.021042 -1.035563 0.513904
0.021977 -0.929809 0.457144
-1.005837 -0.933852 0.657151
-1.004507 -0.837975 0.584949
-1.033393 -0.819272 0.608562
-1.034832 -0.912959 0.683550
-1.006671 -0.800715 0.631616
-1.008212 -0.892200 0.709325
0.030163 -0.720617 0.888794
0.031498 -0.649004 0.792482
0.028918 -0.529654 1.003618
0.030325 -0.478149 0.895215
-1.011675 -0.299949 1.066941
-1.009789 -0.274497 0.949680
-1.012102 -0.233408 1.079281
-1.010189 -0.215052 0.960695
0.025241 0.016544 1.105098
0.026909 0.007829 0.985406
0.024418 0.236104 1.067286
0.026263 0.204343 0.951560
-1.014106 0.457121 0.959267
-1.011812 0.400573 0.853433
-1.011440 0.516229 0.925383
-1.009240 0.453478 0.823092
0.017326 0.656560 0.843314
0.018796 0.579073 0.751676
0.087040 0.789706 0.711597
0.088247 0.698327 0.633813
0.021089 0.899338 0.558136
0.022066 0.796510 0.496264
-1.004161 0.972676 0.391783
-1.002910 0.861575 0.346447
-1.031344 0.872419 0.317959
-1.032668 0.984778 0.359968
-1.004172 0.882516 0.290638
-1.005543 0.996105 0.329356
0.037834 1.053489 0.109968
0.038275 0.934075 0.098112
0.127613 0.939191 0.000008
0.127475 1.059165 0.000009
0.047712 0.939085 -0.001460
0.047547 1.059086 -0.001301
-1.124812 -0.175388 -0.991160
-1.129345 -0.196160 -1.109386
-1.129285 -0.194736 -1.109637
-1.028868 -0.088540 -1.126391
-1.024949 -0.079301 -1.006733
-1.124757 -0.174109 -0.991385
-0.500980 1.046067 0.144533
-0.500068 0.927356 0.127021
-1.086118 1.007381 0.291517
-1.087013 0.891816 0.258822
-1.086228 0.847606 0.376642
-1.085939 0.956309 0.427684
-0.505553 0.901427 0.546210
-0.504559 0.798091 0.485198
0.035438 0.834532 0.654692
0.036501 0.738288 0.583016
-0.834308 0.811635 0.667154
-0.417052 0.813807 0.673391
-0.415571 0.719763 0.598845
-0.832599 0.717582 0.592607
-0.417760 0.761956 0.734299
-0.834894 0.759787 0.728068
-0.833125 0.671160 0.647167
-0.416206 0.673346 0.653398
0.034009 0.741355 0.764147
0.035265 0.655224 0.680589
-0.509601 0.651317 0.838623
-0.507938 0.574488 0.746443
-1.097186 0.424729 0.974154
-1.120487 0.489183 0.939096
-1.091977 0.550444 0.901823
-1.091787 0.482316 0.802944
-1.118110 0.430785 0.834286
-1.096956 0.373762 0.865419
-0.513471 0.275851 1.046323
-0.511394 0.239022 0.932118
0.032511 0.127306 1.091660
0.034256 0.106952 0.973425
-0.512268 -0.031202 1.099864
-0.510546 -0.034481 0.979909
-1.106771 -0.315896 1.061864
-1.107746 -0.218563 1.079929
-1.100976 -0.193566 0.962294
-1.108967 -0.280592 0.946700
-0.509157 -0.489467 1.014684
-0.507684 -0.443156 0.903969
0.037294 -0.627948 0.950999
0.038664 -0.566122 0.848164
-0.507471 -0.753677 0.854686
-0.505926 -0.677679 0.761791
-1.089392 -0.866233 0.737359
-1.090021 -0.778940 0.654845
-1.087375 -0.857441 0.556524
-1.087049 -0.956956 0.623768
-0.505603 -1.027203 0.520873
-0.504695 -0.921869 0.463318
0.035106 -1.085407 0.408788
0.036197 -0.974573 0.362728
-0.834777 -1.077919 0.388577
-0.417549 -1.088415 0.383796
-0.415451 -0.976298 0.341106
-0.832309 -0.965730 0.345892
-0.419049 -1.114289 0.308085
-0.836366 -1.103742 0.312854
-0.833734 -0.988869 0.278078
-0.416801 -0.999397 0.273323
0.033122 -1.131794 0.272764
0.034437 -1.015937 0.241448
-0.511182 -1.148847 0.162393
-0.509573 -1.030377 0.143231
-1.103700 -1.148590 -0.092016
-1.125491 -1.151091 -0.018232
-1.095527 -1.150241 0.052897
-1.095117 -1.030436 0.044537
-1.122645 -1.031130 -0.015249
-1.102808 -1.029036 -0.080603
-0.524066 -1.137793 -0.270331
-0.520704 -1.020707 -0.244018
0.017679 -1.104567 -0.436104
0.021321 -0.992359 -0.393584
-0.530981 -1.027206 -0.561310
-0.526802 -0.922082 -0.503426
-1.130503 -0.845169 -0.771288
-1.130093 -0.909868 -0.696348
-1.120181 -0.820945 -0.615548
-1.129475 -0.763493 -0.682600
-0.534597 -0.724071 -0.912945
-0.529850 -0.651393 -0.817456
0.012326 -0.609142 -1.013905
0.017165 -0.550470 -0.909236
-0.530265 -0.447144 -1.065042
-0.525087 -0.403166 -0.953386
0.035474 0.074071 -1.148862
0.038329 0.059507 -1.029745
-0.833276 0.126762 -1.116701
-0.415963 0.116429 -1.130886
-0.412511 0.098239 -1.012254
-0.829472 0.108569 -0.998058
-0.413599 0.195023 -1.115988
-0.830791 0.205363 -1.101809
-0.827248 0.178963 -0.984746
-0.410394 0.168618 -0.998956
0.039470 0.215244 -1.122094
0.042013 0.185268 -1.005895
-0.499828 0.337645 -1.071291
-0.497221 0.295113 -0.959055
-1.081674 0.576849 -0.932631
-1.106418 0.515129 -0.971469
-1.079321 0.452169 -1.006963
-1.078821 0.399249 -0.899159
-1.104029 0.452214 -0.869285
-1.081676 0.506913 -0.834976
-0.494751 0.702401 -0.842156
-0.493700 0.620820 -0.754133
0.052462 0.806685 -0.735525
0.053008 0.713616 -0.659805
-0.492304 0.894772 -0.606062
-0.491717 0.792034 -0.544042
-1.090025 1.004922 -0.348674
-1.089723 0.972203 -0.442084
-1.084014 0.857670 -0.405244
-1.093261 0.887457 -0.322125
-0.495465 1.047457 -0.164339
-0.495277 0.928538 -0.148352
-0.476616 1.034545 -0.241010
-0.476355 0.916963 -0.216999
-1.021095 0.990011 -0.395720
-1.020362 0.876766 -0.356068
-0.474647 0.932948 -0.537993
-0.473870 0.826222 -0.483022
0.120673 0.774312 -0.774109
0.121789 0.836824 -0.697265
0.117373 0.745417 -0.618911
0.125310 0.690181 -0.687987
[...]
POINT_DATA 2428
SCALARS var1 float
LOOKUP_TABLE default
0.000000
0.000100
0.000200
0.000300
0.000400
0.000500
0.000600
0.000700
0.000800
0.000900
0.001000
0.001100
0.001200
0.001300
0.001400
0.001500
0.001600
0.001700
0.001800
0.001900
0.002000
0.002100
0.002200
0.002300
0.002400
0.002500
0.002600
0.002700
0.002800
0.002900
0.003000
0.003100
0.003200
0.003300
0.003400
0.003500
0.003600
0.003700
0.003800
0.003900
0.004000
0.004100
0.004200
0.004300
0.004400
0.004500
0.004600
0.004700
0.004800
0.004900
0.005000
0.005100
0.005200
0.005300
0.005400
0.005500
0.005600
0.005700
0.005800
0.005900
0.006000
0.006100
0.006200
0.006300
0.006400
0.006500
0.006600
0.006700
0.006800
0.006900
0.007000
0.007100
0.007200
0.007300
0.007400
0.007500
0.007600
0.007700
0.007800
0.007900
0.008000
0.008100
0.008200
0.008300
0.008400
0.008500
0.008600
0.008700
0.008800
0.008900
0.009000
0.009100
0.009200
0.009300
0.009400
0.009500
0.009600
0.009700
0.009800
0.009900
0.010000
0.010100
0.010200
0.010300
0.010400
0.010500
0.010600
0.010700
0.010800
0.010900
0.011000
0.011100
0.011200
0.011300
0.011400
0.011500
0.011600
0.011700
0.011800
0.011900
0.012000
0.012100
0.012200
0.012300
0.012400
0.012500
0.012600
0.012700
0.012800
0.012900
0.013000
0.013100
0.013200
0.013300
0.013400
0.013500
0.013600
0.013700
0.013800
0.013900
0.014000
0.014100
0.014200
0.014300
0.014400
0.014500
0.014600
0.014700
0.014800
0.014900
0.015000
0.015100
0.015200
0.015300
0.015400
0.015500
0.015600
0.015700
0.015800
0.015900
0.016000
0.016100
0.016200
0.016300
0.016400
0.016500
0.016600
0.016700
0.016800
0.016900
0.017000
0.017100
0.017200
0.017300
0.017400
0.017500
0.017600
0.017700
0.017800
0.017900
0.018000
0.018100
0.018200
0.018300
0.018400
0.018500
0.018600
0.018700
0.018800
0.018900
0.019000
0.019100
0.019200
0.019300
0.019400
0.019500
0.019600
0.019700
0.019800
0.019900
0.020000
0.020100
0.020200
0.020300
0.020400
0.020500
0.020600
0.020700
0.020800
0.020900
0.021000
0.021100
0.021200
0.021300
0.021400
0.021500
0.021600
0.021700
0.021800
0.021900
0.022000
0.022100
0.022200
0.022300
0.022400
0.022500
0.022600
0.022700
0.022800
0.022900
0.023000
0.023100
0.023200
0.023300
0.023400
0.023500
0.023600
0.023700
0.023800
0.023900
0.024000
0.024100
0.024200
0.024300
0.024400
0.024500
0.024600
0.024700
0.024800
0.024900
0.025000
0.025100
0.025200
0.025300
0.025400
0.025500
0.025600
0.025700
0.025800
0.025900
0.026000
0.026100
0.026200
0.026300
0.026400
0.026500
0.026600
0.026700
0.026800
0.026900
0.027000
0.027100
0.027200
0.027300
0.027400
0.027500
0.027600
0.027700
0.027800
0.027900
0.028000
0.028100
0.028200
0.028300
0.028400
0.028500
0.028600
0.028700
0.028800
0.028900
0.029000
0.029100
0.029200
0.029300
0.029400
0.029500
0.029600
0.029700
0.029800
0.029900
0.030000
0.030100
0.030200
0.030300
0.030400
0.030500
0.030600
0.030700
0.030800
0.030900
0.031000
0.031100
0.031200
0.031300
0.031400
0.031500
0.031600
0.031700
0.031800
0.031900
0.032000
0.032100
0.032200
0.032300
0.032400
0.032500
0.032600
0.032700
0.032800
0.032900
0.033000
0.033100
0.033200
0.033300
0.033400
0.033500
0.033600
0.033700
0.033800
0.033900
0.034000
0.034100
0.034200
0.034300
0.034400
0.034500
0.034600
0.034700
0.034800
0.034900
0.035000
0.035100
0.035200
0.035300
0.035400
0.035500
0.035600
0.035700
0.035800
0.035900
0.036000
0.036100
0.036200
0.036300
0.036400
0.036500
0.036600
0.036700
0.036800
0.036900
0.037000
0.037100
0.037200
0.037300
0.037400
0.037500
0.037600
0.037700
0.037800
0.037900
0.038000
0.038100
0.038200
0.038300
0.038400
0.038500
0.038600
0.038700
0.038800
0.038900
0.039000
0.039100
0.039200
0.039300
0.039400
0.039500
0.039600
0.039700
0.039800
0.039900
0.040000
0.040100
0.040200
0.040300
0.040400
0.040500
0.040600
0.040700
0.040800
0.040900
0.041000
0.041100
0.041200
0.041300
0.041400
0.041500
0.041600
0.041700
0.041800
0.041900
0.042000
0.042100
0.042200
0.042300
0.042400
0.042500
0.042600
0.042700
0.042800
0.042900
0.043000
0.043100
0.043200
0.043300
0.043400
0.043500
0.043600
0.043700
0.043800
0.043900
0.044000
0.044100
0.044200
0.044300
0.044400
0.044500
0.044600
0.044700
0.044800
0.044900
0.045000
0.045100
0.045200
0.045300
0.045400
0.045500
0.045600
0.045700
0.045800
0.045900
0.046000
0.046100
0.046200
0.046300
0.046400
0.046500
0.046600
0.046700
0.046800
0.046900
0.047000
0.047100
0.047200
0.047300
0.047400
0.047500
0.047600
0.047700
0.047800
0.047900
0.048000
0.048100
0.048200
0.048300
0.048400
0.048500
0.048600
0.048700
0.048800
0.048900
0.049000
0.049100
0.049200
0.049300
0.049400
0.049500
0.049600
0.049700
0.049800
0.049900
0.050000
0.050100
0.050200
0.050300
0.050400
0.050500
0.050600
0.050700
0.050800
0.050900
0.051000
0.051100
0.051200
0.051300
0.051400
0.051500
0.051600
0.051700
0.051800
0.051900
0.052000
0.052100
0.052200
0.052300
0.052400
0.052500
0.052600
0.052700
0.052800
0.052900
0.053000
0.053100
0.053200
0.053300
0.053400
0.053500
0.053600
0.053700
0.053800
0.053900
0.054000
0.054100
0.054200
0.054300
0.054400
0.054500
0.054600
0.054700
0.054800
0.054900
0.055000
0.055100
0.055200
0.055300
0.055400
0.055500
0.055600
0.055700
0.055800
0.055900
0.056000
0.056100
0.056200
0.056300
0.056400
0.056500
0.056600
0.056700
0.056800
0.056900
0.057000
0.057100
0.057200
0.057300
0.057400
0.057500
0.057600
0.057700
0.057800
0.057900
0.058000
0.058100
0.058200
0.058300
0.058400
0.058500
0.058600
0.058700
0.058800
0.058900
0.059000
0.059100
0.059200
0.059300
0.059400
0.059500
0.059600
0.059700
0.059800
0.059900
0.060000
0.060100
0.060200
0.060300
0.060400
0.060500
0.060600
0.060700
0.060800
0.060900
0.061000
0.061100
0.061200
0.061300
0.061400
0.061500
0.061600
0.061700
0.061800
0.061900
0.062000
0.062100
0.062200
0.062300
0.062400
0.062500
0.062600
0.062700
0.062800
0.062900
0.063000
0.063100
0.063200
0.063300
0.063400
0.063500
0.063600
0.063700
0.063800
0.063900
0.064000
0.064100
0.064200
0.064300
0.064400
0.064500
0.064600
0.064700
0.064800
0.064900
0.065000
0.065100
0.065200
0.065300
0.065400
0.065500
0.065600
0.065700
0.065800
0.065900
0.066000
0.066100
0.066200
0.066300
0.066400
0.066500
0.066600
0.066700
0.066800
0.066900
0.067000
0.067100
0.067200
0.067300
0.067400
0.067500
0.067600
0.067700
0.067800
0.067900
0.068000
0.068100
0.068200
0.068300
0.068400
0.068500
0.068600
0.068700
0.068800
0.068900
0.069000
0.069100
0.069200
0.069300
0.069400
0.069500
0.069600
0.069700
0.069800
0.069900
0.070000
0.070100
0.070200
0.070300
0.070400
0.070500
0.070600
0.070700
0.070800
0.070900
0.071000
0.071100
0.071200
0.071300
0.071400
0.071500
0.071600
0.071700
0.071800
0.071900
0.072000
0.072100
0.072200
0.072300
0.072400
0.072500
0.072600
0.072700
0.072800
0.072900
0.073000
0.073100
0.073200
0.073300
0.073400
0.073500
0.073600
0.073700
0.073800
0.073900
0.074000
0.074100
0.074200
0.074300
0.074400
0.074500
0.074600
0.074700
0.074800
0.074900
0.075000
0.075100
0.075200
0.075300
0.075400
0.075500
0.075600
0.075700
0.075800
0.075900
0.076000
0.076100
0.076200
0.076300
0.076400
0.076500
0.076600
0.076700
0.076800
0.076900
0.077000
0.077100
0.077200
0.077300
0.077400
0.077500
0.077600
0.077700
0.077800
0.077900
0.078000
0.078100
0.078200
0.078300
0.078400
0.078500
0.078600
0.078700
0.078800
0.078900
0.079000
0.079100
0.079200
0.079300
0.079400
0.079500
0.079600
0.079700
0.079800
0.079900
0.080000
0.080100
0.080200
0.080300
0.080400
0.080500
0.080600
0.080700
0.080800
0.080900
0.081000
0.081100
0.081200
0.081300
0.081400
0.081500
0.081600
0.081700
0.081800
0.081900
0.082000
0.082100
0.082200
0.082300
0.082400
0.082500
0.082600
0.082700
0.082800
0.082900
0.083000
0.083100
0.083200
0.083300
0.083400
0.083500
0.083600
0.083700
0.083800
0.083900
0.084000
0.084100
0.084200
0.084300
0.084400
0.084500
0.084600
0.084700
0.084800
0.084900
0.085000
0.085100
0.085200
0.085300
0.085400
0.085500
0.085600
0.085700
0.085800
0.085900
0.086000
0.086100
0.086200
0.086300
0.086400
0.086500
0.086600
0.086700
0.086800
0.086900
0.087000
0.087100
0.087200
0.087300
0.087400
0.087500
0.087600
0.087700
0.087800
0.087900
0.088000
0.088100
0.088200
0.088300
0.088400
0.088500
0.088600
0.088700
0.088800
0.088900
0.089000
0.089100
0.089200
0.089300
0.089400
0.089500
0.089600
0.089700
0.089800
0.089900
0.090000
0.090100
0.090200
0.090300
0.090400
0.090500
0.090600
0.090700
0.090800
0.090900
0.091000
0.091100
0.091200
0.091300
0.091400
0.091500
0.091600
0.091700
0.091800
0.091900
0.092000
0.092100
0.092200
0.092300
0.092400
0.092500
0.092600
0.092700
0.092800
0.092900
0.093000
0.093100
0.093200
0.093300
0.093400
0.093500
0.093600
0.093700
0.093800
0.093900
0.094000
0.094100
0.094200
0.094300
0.094400
0.094500
0.094600
0.094700
0.094800
0.094900
0.095000
0.095100
0.095200
0.095300
0.095400
0.095500
0.095600
0.095700
0.095800
0.095900
0.096000
0.096100
0.096200
0.096300
0.096400
0.096500
0.096600
0.096700
0.096800
0.096900
0.097000
0.097100
0.097200
0.097300
0.097400
0.097500
0.097600
0.097700
0.097800
0.097900
0.098000
0.098100
0.098200
0.098300
0.098400
0.098500
0.098600
0.098700
0.098800
0.098900
0.099000
0.099100
0.099200
0.099300
0.099400
0.099500
0.099600
0.099700
0.099800
0.099900
0.100000
0.100100
0.100200
0.100300
0.100400
0.100500
0.100600
0.100700
0.100800
0.100900
0.101000
0.101100
0.101200
0.101300
0.101400
0.101500
0.101600
0.101700
0.101800
0.101900
0.102000
0.102100
0.102200
0.102300
0.102400
0.102500
0.102600
0.102700
0.102800
0.102900
0.103000
0.103100
0.103200
0.103300
0.103400
0.103500
0.103600
0.103700
0.103800
0.103900
0.104000
0.104100
0.104200
0.104300
0.104400
0.104500
0.104600
0.104700
0.104800
0.104900
0.105000
0.105100
0.105200
0.105300
0.105400
0.105500
0.105600
0.105700
0.105800
0.105900
0.106000
0.106100
0.106200
0.106300
0.106400
0.106500
0.106600
0.106700
0.106800
0.106900
0.107000
0.107100
0.107200
0.107300
0.107400
0.107500
0.107600
0.107700
0.107800
0.107900
0.108000
0.108100
0.108200
0.108300
0.108400
0.108500
0.108600
0.108700
0.108800
0.108900
0.109000
0.109100
0.109200
0.109300
0.109400
0.109500
0.109600
0.109700
0.109800
0.109900
0.110000
0.110100
0.110200
0.110300
0.110400
0.110500
0.110600
0.110700
0.110800
0.110900
0.111000
0.111100
0.111200
0.111300
0.111400
0.111500
0.111600
0.111700
0.111800
0.111900
0.112000
0.112100
0.112200
0.112300
0.112400
0.112500
0.112600
0.112700
0.112800
0.112900
0.113000
0.113100
0.113200
0.113300
0.113400
0.113500
0.113600
0.113700
0.113800
0.113900
0.114000
0.114100
0.114200
0.114300
0.114400
0.114500
0.114600
0.114700
0.114800
0.114900
0.115000
0.115100
0.115200
0.115300
0.115400
0.115500
0.115600
0.115700
0.115800
0.115900
0.116000
0.116100
0.116200
0.116300
0.116400
0.116500
0.116600
0.116700
0.116800
0.116900
0.117000
0.117100
0.117200
0.117300
0.117400
0.117500
0.117600
0.117700
0.117800
0.117900
0.118000
0.118100
0.118200
0.118300
0.118400
0.118500
0.118600
0.118700
0.118800
0.118900
0.119000
0.119100
0.119200
0.119300
0.119400
0.119500
0.119600
0.119700
0.119800
0.119900
0.120000
0.120100
0.120200
0.120300
0.120400
0.120500
0.120600
0.120700
0.120800
0.120900
0.121000
0.121100
0.121200
0.121300
0.121400
0.121500
0.121600
0.121700
0.121800
0.121900
0.122000
0.122100
0.122200
0.122300
0.122400
0.122500
0.122600
0.122700
0.122800
0.122900
0.123000
0.123100
0.123200
0.123300
0.123400
0.123500
0.123600
0.123700
0.123800
0.123900
0.124000
0.124100
0.124200
0.124300
0.124400
0.124500
0.124600
0.124700
0.124800
0.124900
0.125000
0.125100
0.125200
0.125300
0.125400
0.125500
0.125600
0.125700
0.125800
0.125900
0.126000
0.126100
0.126200
0.126300
0.126400
0.126500
0.126600
0.126700
0.126800
0.126900
0.127000
0.127100
0.127200
0.127300
0.127400
0.127500
0.127600
0.127700
0.127800
0.127900
0.128000
0.128100
0.128200
0.128300
0.128400
0.128500
0.128600
0.128700
0.128800
0.128900
0.129000
0.129100
0.129200
0.129300
0.129400
0.129500
0.129600
0.129700
0.129800
0.129900
0.130000
0.130100
0.130200
0.130300
0.130400
0.130500
0.130600
0.130700
0.130800
0.130900
0.131000
0.131100
0.131200
0.131300
0.131400
0.131500
0.131600
0.131700
0.131800
0.131900
0.132000
0.132100
0.132200
0.132300
0.132400
0.132500
0.132600
0.132700
0.132800
0.132900
0.133000
0.133100
0.133200
0.133300
0.133400
0.133500
0.133600
0.133700
0.133800
0.133900
0.134000
0.134100
0.134200
0.134300
0.134400
0.134500
0.134600
0.134700
0.134800
0.134900
0.135000
0.135100
0.135200
0.135300
0.135400
0.135500
0.135600
0.135700
0.135800
0.135900
0.136000
0.136100
0.136200
0.136300
0.136400
0.136500
0.136600
0.136700
0.136800
0.136900
0.137000
0.137100
0.137200
0.137300
0.137400
0.137500
0.137600
0.137700
0.137800
0.137900
0.138000
0.138100
0.138200
0.138300
0.138400
0.138500
0.138600
0.138700
0.138800
0.138900
0.139000
0.139100
0.139200
0.139300
0.139400
0.139500
0.139600
0.139700
0.139800
0.139900
0.140000
0.140100
0.140200
0.140300
0.140400
0.140500
0.140600
0.140700
0.140800
0.140900
0.141000
0.141100
0.141200
0.141300
0.141400
0.141500
0.141600
0.141700
0.141800
0.141900
0.142000
0.142100
0.142200
0.142300
0.142400
0.142500
0.142600
0.142700
0.142800
0.142900
0.143000
0.143100
0.143200
0.143300
0.143400
0.143500
0.143600
0.143700
0.143800
0.143900
0.144000
0.144100
0.144200
0.144300
0.144400
0.144500
0.144600
0.144700
0.144800
0.144900
0.145000
0.145100
0.145200
0.145300
0.145400
0.145500
0.145600
0.145700
0.145800
0.145900
0.146000
0.146100
0.146200
0.146300
0.146400
0.146500
0.146600
0.146700
0.146800
0.146900
0.147000
0.147100
0.147200
0.147300
0.147400
0.147500
0.147600
0.147700
0.147800
0.147900
0.148000
0.148100
0.148200
0.148300
0.148400
0.148500
0.148600
0.148700
0.148800
0.148900
0.149000
0.149100
0.149200
0.149300
0.149400
0.149500
0.149600
0.149700
0.149800
0.149900
0.150000
0.150100
0.150200
0.150300
0.150400
0.150500
0.150600
0.150700
0.150800
0.150900
0.151000
0.151100
0.151200
0.151300
0.151400
0.151500
0.151600
0.151700
0.151800
0.151900
0.152000
0.152100
0.152200
0.152300
0.152400
0.152500
0.152600
0.152700
0.152800
0.152900
0.153000
0.153100
0.153200
0.153300
0.153400
0.153500
0.153600
0.153700
0.153800
0.153900
0.154000
0.154100
0.154200
0.154300
0.154400
0.154500
0.154600
0.154700
0.154800
0.154900
0.155000
0.155100
0.155200
0.155300
0.155400
0.155500
0.155600
0.155700
0.155800
0.155900
0.156000
0.156100
0.156200
0.156300
0.156400
0.156500
0.156600
0.156700
0.156800
0.156900
0.157000
0.157100
0.157200
0.157300
0.157400
0.157500
0.157600
0.157700
0.157800
0.157900
0.158000
0.158100
0.158200
0.158300
0.158400
0.158500
0.158600
0.158700
0.158800
0.158900
0.159000
0.159100
0.159200
0.159300
0.159400
0.159500
0.159600
0.159700
0.159800
0.159900
0.160000
0.160100
0.160200
0.160300
0.160400
0.160500
0.160600
0.160700
0.160800
0.160900
0.161000
0.161100
0.161200
0.161300
0.161400
0.161500
0.161600
0.161700
0.161800
0.161900
0.162000
0.162100
0.162200
0.162300
0.162400
0.162500
0.162600
0.162700
0.162800
0.162900
0.163000
0.163100
0.163200
0.163300
0.163400
0.163500
0.163600
0.163700
0.163800
0.163900
0.164000
0.164100
0.164200
0.164300
0.164400
0.164500
0.164600
0.164700
0.164800
0.164900
0.165000
0.165100
0.165200
0.165300
0.165400
0.165500
0.165600
0.165700
0.165800
0.165900
0.166000
0.166100
0.166200
0.166300
0.166400
0.166500
0.166600
0.166700
0.166800
0.166900
0.167000
0.167100
0.167200
0.167300
0.167400
0.167500
0.167600
0.167700
0.167800
0.167900
0.168000
0.168100
0.168200
0.168300
0.168400
0.168500
0.168600
0.168700
0.168800
0.168900
0.169000
0.169100
0.169200
0.169300
0.169400
0.169500
0.169600
0.169700
0.169800
0.169900
0.170000
0.170100
0.170200
0.170300
0.170400
0.170500
0.170600
0.170700
0.170800
0.170900
0.171000
0.171100
0.171200
0.171300
0.171400
0.171500
0.171600
0.171700
0.171800
0.171900
0.172000
0.172100
0.172200
0.172300
0.172400
0.172500
0.172600
0.172700
0.172800
0.172900
0.173000
0.173100
0.173200
0.173300
0.173400
0.173500
0.173600
0.173700
0.173800
0.173900
0.174000
0.174100
0.174200
0.174300
0.174400
0.174500
0.174600
0.174700
0.174800
0.174900
0.175000
0.175100
0.175200
0.175300
0.175400
0.175500
0.175600
0.175700
0.175800
0.175900
0.176000
0.176100
0.176200
0.176300
0.176400
0.176500
0.176600
0.176700
0.176800
0.176900
0.177000
0.177100
0.177200
0.177300
0.177400
0.177500
0.177600
0.177700
0.177800
0.177900
0.178000
0.178100
0.178200
0.178300
0.178400
0.178500
0.178600
0.178700
0.178800
0.178900
0.179000
0.179100
0.179200
0.179300
0.179400
0.179500
0.179600
0.179700
0.179800
0.179900
0.180000
0.180100
0.180200
0.180300
0.180400
0.180500
0.180600
0.180700
0.180800
0.180900
0.181000
0.181100
0.181200
0.181300
0.181400
0.181500
0.181600
0.181700
0.181800
0.181900
0.182000
0.182100
0.182200
0.182300
0.182400
0.182500
0.182600
0.182700
0.182800
0.182900
0.183000
0.183100
0.183200
0.183300
0.183400
0.183500
0.183600
0.183700
0.183800
0.183900
0.184000
0.184100
0.184200
0.184300
0.184400
0.184500
0.184600
0.184700
0.184800
0.184900
0.185000
0.185100
0.185200
0.185300
0.185400
0.185500
0.185600
0.185700
0.185800
0.185900
0.186000
0.186100
0.186200
0.186300
0.186400
0.186500
0.186600
0.186700
0.186800
0.186900
0.187000
0.187100
0.187200
0.187300
0.187400
0.187500
0.187600
0.187700
0.187800
0.187900
0.188000
0.188100
0.188200
0.188300
0.188400
0.188500
0.188600
0.188700
0.188800
0.188900
0.189000
0.189100
0.189200
0.189300
0.189400
0.189500
0.189600
0.189700
0.189800
0.189900
0.190000
0.190100
0.190200
0.190300
0.190400
0.190500
0.190600
0.190700
0.190800
0.190900
0.191000
0.191100
0.191200
0.191300
0.191400
0.191500
0.191600
0.191700
0.191800
0.191900
0.192000
0.192100
0.192200
0.192300
0.192400
0.192500
0.192600
0.192700
0.192800
0.192900
0.193000
0.193100
0.193200
0.193300
0.193400
0.193500
0.193600
0.193700
0.193800
0.193900
0.194000
0.194100
0.194200
0.194300
0.194400
0.194500
0.194600
0.194700
0.194800
0.194900
0.195000
0.195100
0.195200
0.195300
0.195400
0.195500
0.195600
0.195700
0.195800
0.195900
0.196000
0.196100
0.196200
0.196300
0.196400
0.196500
0.196600
0.196700
0.196800
0.196900
0.197000
0.197100
0.197200
0.197300
0.197400
0.197500
0.197600
0.197700
0.197800
0.197900
0.198000
0.198100
0.198200
0.198300
0.198400
0.198500
0.198600
0.198700
0.198800
0.198900
0.199000
0.199100
0.199200
0.199300
0.199400
0.199500
0.199600
0.199700
0.199800
0.199900
0.200000
0.200100
0.200200
0.200300
0.200400
0.200500
0.200600
0.200700
0.200800
0.200900
0.201000
0.201100
0.201200
0.201300
0.201400
0.201500
0.201600
0.201700
0.201800
0.201900
0.202000
0.202100
0.202200
0.202300
0.202400
0.202500
0.202600
0.202700
0.202800
0.202900
0.203000
0.203100
0.203200
0.203300
0.203400
0.203500
0.203600
0.203700
0.203800
0.203900
0.204000
0.204100
0.204200
0.204300
0.204400
0.204500
0.204600
0.204700
0.204800
0.204900
0.205000
0.205100
0.205200
0.205300
0.205400
0.205500
0.205600
0.205700
0.205800
0.205900
0.206000
0.206100
0.206200
0.206300
0.206400
0.206500
0.206600
0.206700
0.206800
0.206900
0.207000
0.207100
0.207200
0.207300
0.207400
0.207500
0.207600
0.207700
0.207800
0.207900
0.208000
0.208100
0.208200
0.208300
0.208400
0.208500
0.208600
0.208700
0.208800
0.208900
0.209000
0.209100
0.209200
0.209300
0.209400
0.209500
0.209600
0.209700
0.209800
0.209900
0.210000
0.210100
0.210200
0.210300
0.210400
0.210500
0.210600
0.210700
0.210800
0.210900
0.211000
0.211100
0.211200
0.211300
0.211400
0.211500
0.211600
0.211700
0.211800
0.211900
0.212000
0.212100
0.212200
0.212300
0.212400
0.212500
0.212600
0.212700
0.212800
0.212900
0.213000
0.213100
0.213200
0.213300
0.213400
0.213500
0.213600
0.213700
0.213800
0.213900
0.214000
0.214100
0.214200
0.214300
0.214400
0.214500
0.214600
0.214700
0.214800
0.214900
0.215000
0.215100
0.215200
0.215300
0.215400
0.215500
0.215600
0.215700
0.215800
0.215900
0.216000
0.216100
0.216200
0.216300
0.216400
0.216500
0.216600
0.216700
0.216800
0.216900
0.217000
0.217100
0.217200
0.217300
0.217400
0.217500
0.217600
0.217700
0.217800
0.217900
0.218000
0.218100
0.218200
0.218300
0.218400
0.218500
0.218600
0.218700
0.218800
0.218900
0.219000
0.219100
0.219200
0.219300
0.219400
0.219500
0.219600
0.219700
0.219800
0.219900
0.220000
0.220100
0.220200
0.220300
0.220400
0.220500
0.220600
0.220700
0.220800
0.220900
0.221000
0.221100
0.221200
0.221300
0.221400
0.221500