# vtk DataFile Version 2.0
Generated Volume Mesh
ASCII
DATASET UNSTRUCTURED_GRID
POINTS 2428 float
-1.026680 1.109702 0.274891
0.012036 1.149376 0.033661
0.012329 1.029434 0.030010
-1.026086 0.993780 0.243851
-1.114756 1.075880 0.379262
-1.114195 0.963004 0.338418
-1.114769 1.075373 0.380617
-1.019260 0.923571 0.430779
-1.019707 1.031268 0.483716
0.006495 0.942828 0.636521
0.006680 0.844640 0.567524
0.000067 0.901264 0.691909
0.000407 0.807417 0.617107
-1.251400 0.900872 0.682890
-1.250718 0.807022 0.608099
-1.307540 0.918204 0.660059
-1.306870 0.822537 0.587607
-1.307330 0.822872 0.587160
-1.308000 0.918579 0.659560
-1.308662 0.828924 0.764370
-1.307926 0.742572 0.681033
-1.307461 0.742960 0.680636
-1.308196 0.829356 0.763926
-1.251786 0.848878 0.743672
-1.251064 0.760452 0.662540
-0.000411 0.849264 0.752683
-0.000018 0.760844 0.671539
0.005111 0.800873 0.802304
0.005596 0.717506 0.715992
-1.023212 0.669431 0.901820
-1.022066 0.600076 0.803889
-1.032674 0.474502 1.012996
-1.031293 0.425480 0.903464
0.003462 0.235640 1.102156
0.004800 0.211751 0.984560
0.003180 0.168877 1.113675
0.004551 0.151994 0.994875
-1.035224 -0.077542 1.107156
-1.033353 -0.067901 0.987545
-1.035260 -0.296879 1.067790
-1.033321 -0.264273 0.952301
0.003156 -0.530146 0.989552
0.004889 -0.472703 0.884191
0.003477 -0.588639 0.955347
0.005228 -0.525029 0.853594
-1.032479 -0.779238 0.784370
-1.030694 -0.694699 0.699199
-1.119191 -0.853110 0.701806
-1.117506 -0.761617 0.624118
-1.119185 -0.854034 0.700693
-1.021254 -0.822128 0.545515
-1.022696 -0.921534 0.612737
0.005870 -1.010594 0.476340
0.006808 -0.902167 0.424927
0.000442 -1.038311 0.412809
0.001425 -0.927009 0.367997
-1.251116 -1.025749 0.400120
-1.249271 -0.914423 0.355324
-1.307534 -1.014134 0.425729
-1.305674 -0.903947 0.378200
-1.306139 -0.903721 0.378707
-1.308000 -1.013882 0.426295
-1.307241 -1.060884 0.296634
-1.305460 -0.945820 0.262576
-1.305001 -0.945667 0.263114
-1.306782 -1.060713 0.297235
-1.250676 -1.053008 0.324925
-1.248877 -0.938838 0.287975
0.001132 -1.065618 0.337617
0.002044 -0.951405 0.300651
0.007814 -1.085008 0.271223
0.008469 -0.968845 0.241143
-1.017772 -1.111425 0.094019
-1.017049 -0.992042 0.081884
-1.024476 -1.112218 -0.130495
-1.023740 -0.992753 -0.119194
0.014057 -1.067151 -0.371087
0.014468 -0.953205 -0.333466
0.014229 -1.044032 -0.434767
0.014515 -0.932541 -0.390390
-1.023387 -0.924368 -0.652723
-1.022921 -0.825774 -0.584314
-1.023628 -0.780055 -0.822578
-1.023116 -0.696620 -0.736324
0.013393 -0.583525 -0.978244
0.013959 -0.521761 -0.875361
0.013091 -0.524389 -1.011306
0.013781 -0.468896 -0.904913
-1.025977 -0.294320 -1.090543
-1.024664 -0.263783 -0.974480
0.000301 0.171497 -1.126789
0.006673 0.102754 -1.135150
0.008114 0.092107 -1.015621
0.001965 0.153715 -1.008096
-1.251344 0.164520 -1.105652
-1.249026 0.146738 -0.986972
-1.307539 0.136106 -1.108456
-1.305234 0.121259 -0.989370
-1.305696 0.120704 -0.989430
-1.308000 0.135486 -1.108524
-1.308275 0.271096 -1.083355
-1.305937 0.242162 -0.966890
-1.305474 0.241624 -0.967033
-1.307812 0.270495 -1.083514
-1.251500 0.243165 -1.091058
-1.249165 0.217177 -0.973900
-0.000008 0.250151 -1.112183
0.001695 0.224144 -0.995012
0.005744 0.317322 -1.095198
0.007485 0.284381 -0.979815
-1.021553 0.471267 -1.020232
-1.019375 0.421735 -0.910933
-1.029298 0.665655 -0.908050
-1.027110 0.595884 -0.810411
0.009325 0.859467 -0.756389
0.010645 0.770337 -0.676049
0.009729 0.903380 -0.704806
0.010849 0.809653 -0.629881
-1.026692 1.031433 -0.486745
-1.025717 0.923449 -0.434379
-1.025919 1.108686 -0.277705
-1.024983 0.992615 -0.247242
0.012169 1.149376 -0.034090
0.012478 1.029437 -0.030515
-1.007236 1.086569 -0.352256
0.031259 1.144482 -0.111611
0.031569 1.025047 -0.099917
-1.006258 0.972818 -0.314043
-1.007461 1.063060 -0.415831
-1.006496 0.951794 -0.370912
0.029112 0.949903 -0.642705
0.030190 0.851322 -0.574278
0.027979 0.805633 -0.812509
0.029386 0.722128 -0.726329
-1.010413 0.601114 -0.951356
-1.008177 0.538126 -0.849227
-1.008052 0.542020 -0.985486
-1.005815 0.485127 -0.879829
0.019036 0.392442 -1.071153
0.020852 0.351638 -0.958290
0.087354 0.211484 -1.121272
0.088998 0.189571 -1.003286
0.020550 0.024103 -1.139604
0.021980 0.021691 -1.019627
-1.005376 -0.152537 -1.118663
-1.004025 -0.136788 -0.999692
-1.032832 -0.166712 -0.994977
-1.034219 -0.185911 -1.113422
-1.006063 -0.195868 -0.990137
-1.007439 -0.218486 -1.107996
0.031762 -0.454331 -1.045028
0.032499 -0.406122 -0.935123
0.032643 -0.648753 -0.936123
0.033176 -0.580145 -0.837652
-1.004591 -0.834093 -0.766759
-1.004086 -0.745023 -0.686348
-1.004508 -0.877984 -0.715099
-1.004031 -0.784245 -0.640181
0.033321 -1.012948 -0.505919
0.033602 -0.904690 -0.454152
0.032866 -1.089077 -0.296500
0.033305 -0.972844 -0.266675
-1.005895 -1.117046 -0.052845
-1.005108 -0.997087 -0.049639
-1.003816 -1.116788 0.015453
-1.003096 -0.996851 0.011517
0.021951 -1.102204 0.194421
0.022578 -0.984250 0.172339
0.088007 -1.052953 0.376381
0.088903 -0.940144 0.335464
0.018689 -0.974442 0.546531
0.019728 -0.869798 0.487802
-1.009899 -0.875219 0.676688
-1.008346 -0.780664 0.602806
-1.037554 -0.761644 0.625852
-1.039206 -0.853981 0.702470
-1.011160 -0.742507 0.648832
-1.012898 -0.832604 0.728101
0.022914 -0.653158 0.912242
0.024630 -0.582809 0.815027
0.021809 -0.460771 1.024704
0.023598 -0.410567 0.915710
-1.016356 -0.221479 1.086656
-1.014400 -0.196775 0.969232
-1.016326 -0.154781 1.098605
-1.014412 -0.137090 0.979918
0.021885 0.091578 1.122237
0.023308 0.082769 1.002556
0.022819 0.311168 1.084356
0.024150 0.279401 0.968634
-1.013165 0.544287 0.979124
-1.011817 0.487974 0.873157
-1.010268 0.603576 0.945321
-1.009019 0.541080 0.842873
0.018078 0.742297 0.855212
0.018657 0.665046 0.763376
0.087040 0.875640 0.723305
0.087385 0.784462 0.645283
0.020398 0.985896 0.570585
0.020562 0.883219 0.508461
-1.005885 1.063624 0.411877
-1.005444 0.952547 0.366463
-1.034246 0.963488 0.338296
-1.034784 1.075841 0.380389
-1.007446 0.973582 0.310555
-1.008068 1.087151 0.349345
0.030811 1.144425 0.111263
0.031117 1.025003 0.099505
0.118885 1.029996 0.000008
0.118654 1.150069 0.000009
0.038982 1.030000 -0.000196
0.038718 1.149936 -0.000162
-1.112810 -0.167608 -0.993872
-1.114164 -0.186879 -1.112342
-1.114171 -0.185453 -1.112574
-1.019274 -0.074121 -1.126167
-1.017918 -0.066565 -1.006390
-1.112816 -0.166329 -0.994080
-0.507035 1.136876 0.155676
-0.506443 1.018163 0.138171
-1.089176 1.098581 0.312705
-1.090732 0.983064 0.279964
-1.088438 0.938769 0.397693
-1.087242 1.047428 0.448752
-0.506251 0.990350 0.561926
-0.506113 0.887105 0.500756
0.035160 0.920779 0.666897
0.035384 0.824711 0.594974
-0.834293 0.901400 0.685992
-0.417120 0.901597 0.689037
-0.416603 0.807748 0.614242
-0.833645 0.807545 0.611199
-0.417567 0.849592 0.749813
-0.834689 0.849397 0.746772
-0.834001 0.760977 0.665639
-0.417004 0.761182 0.668679
0.034278 0.827289 0.776135
0.034664 0.741371 0.692348
-0.508807 0.737517 0.855142
-0.508006 0.660927 0.762760
-1.096427 0.512522 0.994316
-1.119423 0.577196 0.959564
-1.090733 0.638337 0.922300
-1.091510 0.570466 0.823256
-1.118002 0.519054 0.854599
-1.097131 0.461828 0.885486
-0.514436 0.357274 1.064362
-0.513075 0.320583 0.950114
0.029914 0.202288 1.108729
0.031274 0.181889 0.990485
-0.515836 0.045887 1.117845
-0.514253 0.042234 0.997907
-1.111568 -0.236746 1.081769
-1.111892 -0.139368 1.099243
-1.105096 -0.115094 0.981479
-1.113663 -0.202137 0.966414
-0.515874 -0.416250 1.035300
-0.514074 -0.370959 0.924180
0.029911 -0.559724 0.973284
0.031659 -0.499173 0.869692
-0.514349 -0.688522 0.875433
-0.512513 -0.613970 0.781409
-1.094493 -0.806603 0.754956
-1.094845 -0.720819 0.670928
-1.090914 -0.801002 0.574054
-1.090720 -0.899253 0.643055
-0.508124 -0.969144 0.546524
-0.507048 -0.864922 0.487045
0.035080 -1.026148 0.442642
0.035983 -0.916231 0.394489
-0.833998 -1.030828 0.404414
-0.416794 -1.035335 0.408541
-0.415277 -0.924055 0.363735
-0.832219 -0.919500 0.359610
-0.416327 -1.062627 0.333352
-0.833560 -1.058086 0.329215
-0.831828 -0.943921 0.292264
-0.414863 -0.948449 0.296407
0.036368 -1.075158 0.307491
0.037097 -0.959931 0.273991
-0.504630 -1.101770 0.182908
-0.504099 -0.983661 0.161709
-1.088720 -1.114982 -0.088979
-1.112602 -1.116708 -0.015865
-1.084807 -1.114258 0.056042
-1.086025 -0.994643 0.045727
-1.111750 -0.996721 -0.014774
-1.090071 -0.995313 -0.079522
-0.504904 -1.096910 -0.251825
-0.504242 -0.979464 -0.227235
0.040733 -1.056153 -0.403078
0.041100 -0.943390 -0.362064
-0.504160 -0.990514 -0.547544
-0.503903 -0.884786 -0.490790
-1.099827 -0.823128 -0.778161
-1.100075 -0.887194 -0.702764
-1.094682 -0.797532 -0.622547
-1.103347 -0.740850 -0.690278
-0.504713 -0.686455 -0.905844
-0.504271 -0.613366 -0.810669
0.039834 -0.554190 -0.995382
0.040471 -0.495537 -0.890707
-0.506130 -0.411673 -1.058148
-0.505070 -0.368406 -0.946205
0.035367 0.140074 -1.131558
0.036873 0.125872 -1.012390
-0.834233 0.166699 -1.113412
-0.417001 0.168981 -1.120628
-0.414972 0.151203 -1.001941
-0.831972 0.148919 -0.994718
-0.417228 0.247624 -1.106014
-0.834387 0.245346 -1.098803
-0.832110 0.219357 -0.981650
-0.415175 0.221631 -0.988882
0.034786 0.281433 -1.105285
0.036445 0.251913 -0.988963
-0.507755 0.395514 -1.061143
-0.505794 0.354161 -0.948492
-1.093400 0.630502 -0.930756
-1.116972 0.567913 -0.968772
-1.088813 0.504807 -1.003024
-1.088566 0.453590 -0.894410
-1.114620 0.506668 -0.865588
-1.093260 0.562175 -0.832018
-0.509878 0.767626 -0.837948
-0.508056 0.687733 -0.748414
0.036126 0.881933 -0.731198
0.037347 0.790477 -0.653525
-0.508066 0.973528 -0.599134
-0.507196 0.872058 -0.535085
-1.102390 1.090926 -0.336583
-1.103097 1.056637 -0.429375
-1.097256 0.942770 -0.390603
-1.105509 0.973985 -0.307943
-0.506471 1.136606 -0.157772
-0.505766 1.017851 -0.140621
-0.488190 1.123007 -0.234464
-0.487401 1.005663 -0.209322
-1.033952 1.075114 -0.384060
-1.032987 0.962566 -0.342469
-0.489326 1.012924 -0.532084
-0.488402 0.907351 -0.475017
0.104504 0.849228 -0.769158
0.105361 0.913261 -0.693743
0.101662 0.823575 -0.613455
0.109858 0.766973 -0.681321
[...]
POINT_DATA 2428
SCALARS var1 float
LOOKUP_TABLE default
0.000000
0.010000
0.020000
0.030000
0.040000
0.050000
0.060000
0.070000
0.080000
0.090000
0.100000
0.110000
0.120000
0.130000
0.140000
0.150000
0.160000
0.170000
0.180000
0.190000
0.200000
0.210000
0.220000
0.230000
0.240000
0.250000
0.260000
0.270000
0.280000
0.290000
0.300000
0.310000
0.320000
0.330000
0.340000
0.350000
0.360000
0.370000
0.380000
0.390000
0.400000
0.410000
0.420000
0.430000
0.440000
0.450000
0.460000
0.470000
0.480000
0.490000
0.500000
0.510000
0.520000
0.530000
0.540000
0.550000
0.560000
0.570000
0.580000
0.590000
0.600000
0.610000
0.620000
0.630000
0.640000
0.650000
0.660000
0.670000
0.680000
0.690000
0.700000
0.710000
0.720000
0.730000
0.740000
0.750000
0.760000
0.770000
0.780000
0.790000
0.800000
0.810000
0.820000
0.830000
0.840000
0.850000
0.860000
0.870000
0.880000
0.890000
0.900000
0.910000
0.920000
0.930000
0.940000
0.950000
0.960000
0.970000
0.980000
0.990000
1.000000
1.010000
1.020000
1.030000
1.040000
1.050000
1.060000
1.070000
1.080000
1.090000
1.100000
1.110000
1.120000
1.130000
1.140000
1.150000
1.160000
1.170000
1.180000
1.190000
1.200000
1.210000
1.220000
1.230000
1.240000
1.250000
1.260000
1.270000
1.280000
1.290000
1.300000
1.310000
1.320000
1.330000
1.340000
1.350000
1.360000
1.370000
1.380000
1.390000
1.400000
1.410000
1.420000
1.430000
1.440000
1.450000
1.460000
1.470000
1.480000
1.490000
1.500000
1.510000
1.520000
1.530000
1.540000
1.550000
1.560000
1.570000
1.580000
1.590000
1.600000
1.610000
1.620000
1.630000
1.640000
1.650000
1.660000
1.670000
1.680000
1.690000
1.700000
1.710000
1.720000
1.730000
1.740000
1.750000
1.760000
1.770000
1.780000
1.790000
1.800000
1.810000
1.820000
1.830000
1.840000
1.850000
1.860000
1.870000
1.880000
1.890000
1.900000
1.910000
1.920000
1.930000
1.940000
1.950000
1.960000
1.970000
1.980000
1.990000
2.000000
2.010000
2.020000
2.030000
2.040000
2.050000
2.060000
2.070000
2.080000
2.090000
2.100000
2.110000
2.120000
2.130000
2.140000
2.150000
2.160000
2.170000
2.180000
2.190000
2.200000
2.210000
2.220000
2.230000
2.240000
2.250000
2.260000
2.270000
2.280000
2.290000
2.300000
2.310000
2.320000
2.330000
2.340000
2.350000
2.360000
2.370000
2.380000
2.390000
2.400000
2.410000
2.420000
2.430000
2.440000
2.450000
2.460000
2.470000
2.480000
2.490000
2.500000
2.510000
2.520000
2.530000
2.540000
2.550000
2.560000
2.570000
2.580000
2.590000
2.600000
2.610000
2.620000
2.630000
2.640000
2.650000
2.660000
2.670000
2.680000
2.690000
2.700000
2.710000
2.720000
2.730000
2.740000
2.750000
2.760000
2.770000
2.780000
2.790000
2.800000
2.810000
2.820000
2.830000
2.840000
2.850000
2.860000
2.870000
2.880000
2.890000
2.900000
2.910000
2.920000
2.930000
2.940000
2.950000
2.960000
2.970000
2.980000
2.990000
3.000000
3.010000
3.020000
3.030000
3.040000
3.050000
3.060000
3.070000
3.080000
3.090000
3.100000
3.110000
3.120000
3.130000
3.140000
3.150000
3.160000
3.170000
3.180000
3.190000
3.200000
3.210000
3.220000
3.230000
3.240000
3.250000
3.260000
3.270000
3.280000
3.290000
3.300000
3.310000
3.320000
3.330000
3.340000
3.350000
3.360000
3.370000
3.380000
3.390000
3.400000
3.410000
3.420000
3.430000
3.440000
3.450000
3.460000
3.470000
3.480000
3.490000
3.500000
3.510000
3.520000
3.530000
3.540000
3.550000
3.560000
3.570000
3.580000
3.590000
3.600000
3.610000
3.620000
3.630000
3.640000
3.650000
3.660000
3.670000
3.680000
3.690000
3.700000
3.710000
3.720000
3.730000
3.740000
3.750000
3.760000
3.770000
3.780000
3.790000
3.800000
3.810000
3.820000
3.830000
3.840000
3.850000
3.860000
3.870000
3.880000
3.890000
3.900000
3.910000
3.920000
3.930000
3.940000
3.950000
3.960000
3.970000
3.980000
3.990000
4.000000
4.010000
4.020000
4.030000
4.040000
4.050000
4.060000
4.070000
4.080000
4.090000
4.100000
4.110000
4.120000
4.130000
4.140000
4.150000
4.160000
4.170000
4.180000
4.190000
4.200000
4.210000
4.220000
4.230000
4.240000
4.250000
4.260000
4.270000
4.280000
4.290000
4.300000
4.310000
4.320000
4.330000
4.340000
4.350000
4.360000
4.370000
4.380000
4.390000
4.400000
4.410000
4.420000
4.430000
4.440000
4.450000
4.460000
4.470000
4.480000
4.490000
4.500000
4.510000
4.520000
4.530000
4.540000
4.550000
4.560000
4.570000
4.580000
4.590000
4.600000
4.610000
4.620000
4.630000
4.640000
4.650000
4.660000
4.670000
4.680000
4.690000
4.700000
4.710000
4.720000
4.730000
4.740000
4.750000
4.760000
4.770000
4.780000
4.790000
4.800000
4.810000
4.820000
4.830000
4.840000
4.850000
4.860000
4.870000
4.880000
4.890000
4.900000
4.910000
4.920000
4.930000
4.940000
4.950000
4.960000
4.970000
4.980000
4.990000
5.000000
5.010000
5.020000
5.030000
5.040000
5.050000
5.060000
5.070000
5.080000
5.090000
5.100000
5.110000
5.120000
5.130000
5.140000
5.150000
5.160000
5.170000
5.180000
5.190000
5.200000
5.210000
5.220000
5.230000
5.240000
5.250000
5.260000
5.270000
5.280000
5.290000
5.300000
5.310000
5.320000
5.330000
5.340000
5.350000
5.360000
5.370000
5.380000
5.390000
5.400000
5.410000
5.420000
5.430000
5.440000
5.450000
5.460000
5.470000
5.480000
5.490000
5.500000
5.510000
5.520000
5.530000
5.540000
5.550000
5.560000
5.570000
5.580000
5.590000
5.600000
5.610000
5.620000
5.630000
5.640000
5.650000
5.660000
5.670000
5.680000
5.690000
5.700000
5.710000
5.720000
5.730000
5.740000
5.750000
5.760000
5.770000
5.780000
5.790000
5.800000
5.810000
5.820000
5.830000
5.840000
5.850000
5.860000
5.870000
5.880000
5.890000
5.900000
5.910000
5.920000
5.930000
5.940000
5.950000
5.960000
5.970000
5.980000
5.990000
6.000000
6.010000
6.020000
6.030000
6.040000
6.050000
6.060000
6.070000
6.080000
6.090000
6.100000
6.110000
6.120000
6.130000
6.140000
6.150000
6.160000
6.170000
6.180000
6.190000
6.200000
6.210000
6.220000
6.230000
6.240000
6.250000
6.260000
6.270000
6.280000
6.290000
6.300000
6.310000
6.320000
6.330000
6.340000
6.350000
6.360000
6.370000
6.380000
6.390000
6.400000
6.410000
6.420000
6.430000
6.440000
6.450000
6.460000
6.470000
6.480000
6.490000
6.500000
6.510000
6.520000
6.530000
6.540000
6.550000
6.560000
6.570000
6.580000
6.590000
6.600000
6.610000
6.620000
6.630000
6.640000
6.650000
6.660000
6.670000
6.680000
6.690000
6.700000
6.710000
6.720000
6.730000
6.740000
6.750000
6.760000
6.770000
6.780000
6.790000
6.800000
6.810000
6.820000
6.830000
6.840000
6.850000
6.860000
6.870000
6.880000
6.890000
6.900000
6.910000
6.920000
6.930000
6.940000
6.950000
6.960000
6.970000
6.980000
6.990000
7.000000
7.010000
7.020000
7.030000
7.040000
7.050000
7.060000
7.070000
7.080000
7.090000
7.100000
7.110000
7.120000
7.130000
7.140000
7.150000
7.160000
7.170000
7.180000
7.190000
7.200000
7.210000
7.220000
7.230000
7.240000
7.250000
7.260000
7.270000
7.280000
7.290000
7.300000
7.310000
7.320000
7.330000
7.340000
7.350000
7.360000
7.370000
7.380000
7.390000
7.400000
7.410000
7.420000
7.430000
7.440000
7.450000
7.460000
7.470000
7.480000
7.490000
7.500000
7.510000
7.520000
7.530000
7.540000
7.550000
7.560000
7.570000
7.580000
7.590000
7.600000
7.610000
7.620000
7.630000
7.640000
7.650000
7.660000
7.670000
7.680000
7.690000
7.700000
7.710000
7.720000
7.730000
7.740000
7.750000
7.760000
7.770000
7.780000
7.790000
7.800000
7.810000
7.820000
7.830000
7.840000
7.850000
7.860000
7.870000
7.880000
7.890000
7.900000
7.910000
7.920000
7.930000
7.940000
7.950000
7.960000
7.970000
7.980000
7.990000
8.000000
8.010000
8.020000
8.030000
8.040000
8.050000
8.060000
8.070000
8.080000
8.090000
8.100000
8.110000
8.120000
8.130000
8.140000
8.150000
8.160000
8.170000
8.180000
8.190000
8.200000
8.210000
8.220000
8.230000
8.240000
8.250000
8.260000
8.270000
8.280000
8.290000
8.300000
8.310000
8.320000
8.330000
8.340000
8.350000
8.360000
8.370000
8.380000
8.390000
8.400000
8.410000
8.420000
8.430000
8.440000
8.450000
8.460000
8.470000
8.480000
8.490000
8.500000
8.510000
8.520000
8.530000
8.540000
8.550000
8.560000
8.570000
8.580000
8.590000
8.600000
8.610000
8.620000
8.630000
8.640000
8.650000
8.660000
8.670000
8.680000
8.690000
8.700000
8.710000
8.720000
8.730000
8.740000
8.750000
8.760000
8.770000
8.780000
8.790000
8.800000
8.810000
8.820000
8.830000
8.840000
8.850000
8.860000
8.870000
8.880000
8.890000
8.900000
8.910000
8.920000
8.930000
8.940000
8.950000
8.960000
8.970000
8.980000
8.990000
9.000000
9.010000
9.020000
9.030000
9.040000
9.050000
9.060000
9.070000
9.080000
9.090000
9.100000
9.110000
9.120000
9.130000
9.140000
9.150000
9.160000
9.170000
9.180000
9.190000
9.200000
9.210000
9.220000
9.230000
9.240000
9.250000
9.260000
9.270000
9.280000
9.290000
9.300000
9.310000
9.320000
9.330000
9.340000
9.350000
9.360000
9.370000
9.380000
9.390000
9.400000
9.410000
9.420000
9.430000
9.440000
9.450000
9.460000
9.470000
9.480000
9.490000
9.500000
9.510000
9.520000
9.530000
9.540000
9.550000
9.560000
9.570000
9.580000
9.590000
9.600000
9.610000
9.620000
9.630000
9.640000
9.650000
9.660000
9.670000
9.680000
9.690000
9.700000
9.710000
9.720000
9.730000
9.740000
9.750000
9.760000
9.770000
9.780000
9.790000
9.800000
9.810000
9.820000
9.830000
9.840000
9.850000
9.860000
9.870000
9.880000
9.890000
9.900000
9.910000
9.920000
9.930000
9.940000
9.950000
9.960000
9.970000
9.980000
9.990000
10.000000
10.010000
10.020000
10.030000
10.040000
10.050000
10.060000
10.070000
10.080000
10.090000
10.100000
10.110000
10.120000
10.130000
10.140000
10.150000
10.160000
10.170000
10.180000
10.190000
10.200000
10.210000
10.220000
10.230000
10.240000
10.250000
10.260000
10.270000
10.280000
10.290000
10.300000
10.310000
10.320000
10.330000
10.340000
10.350000
10.360000
10.370000
10.380000
10.390000
10.400000
10.410000
10.420000
10.430000
10.440000
10.450000
10.460000
10.470000
10.480000
10.490000
10.500000
10.510000
10.520000
10.530000
10.540000
10.550000
10.560000
10.570000
10.580000
10.590000
10.600000
10.610000
10.620000
10.630000
10.640000
10.650000
10.660000
10.670000
10.680000
10.690000
10.700000
10.710000
10.720000
10.730000
10.740000
10.750000
10.760000
10.770000
10.780000
10.790000
10.800000
10.810000
10.820000
10.830000
10.840000
10.850000
10.860000
10.870000
10.880000
10.890000
10.900000
10.910000
10.920000
10.930000
10.940000
10.950000
10.960000
10.970000
10.980000
10.990000
11.000000
11.010000
11.020000
11.030000
11.040000
11.050000
11.060000
11.070000
11.080000
11.090000
11.100000
11.110000
11.120000
11.130000
11.140000
11.150000
11.160000
11.170000
11.180000
11.190000
11.200000
11.210000
11.220000
11.230000
11.240000
11.250000
11.260000
11.270000
11.280000
11.290000
11.300000
11.310000
11.320000
11.330000
11.340000
11.350000
11.360000
11.370000
11.380000
11.390000
11.400000
11.410000
11.420000
11.430000
11.440000
11.450000
11.460000
11.470000
11.480000
11.490000
11.500000
11.510000
11.520000
11.530000
11.540000
11.550000
11.560000
11.570000
11.580000
11.590000
11.600000
11.610000
11.620000
11.630000
11.640000
11.650000
11.660000
11.670000
11.680000
11.690000
11.700000
11.710000
11.720000
11.730000
11.740000
11.750000
11.760000
11.770000
11.780000
11.790000
11.800000
11.810000
11.820000
11.830000
11.840000
11.850000
11.860000
11.870000
11.880000
11.890000
11.900000
11.910000
11.920000
11.930000
11.940000
11.950000
11.960000
11.970000
11.980000
11.990000
12.000000
12.010000
12.020000
12.030000
12.040000
12.050000
12.060000
12.070000
12.080000
12.090000
12.100000
12.110000
12.120000
12.130000
12.140000
12.150000
12.160000
12.170000
12.180000
12.190000
12.200000
12.210000
12.220000
12.230000
12.240000
12.250000
12.260000
12.270000
12.280000
12.290000
12.300000
12.310000
12.320000
12.330000
12.340000
12.350000
12.360000
12.370000
12.380000
12.390000
12.400000
12.410000
12.420000
12.430000
12.440000
12.450000
12.460000
12.470000
12.480000
12.490000
12.500000
12.510000
12.520000
12.530000
12.540000
12.550000
12.560000
12.570000
12.580000
12.590000
12.600000
12.610000
12.620000
12.630000
12.640000
12.650000
12.660000
12.670000
12.680000
12.690000
12.700000
12.710000
12.720000
12.730000
12.740000
12.750000
12.760000
12.770000
12.780000
12.790000
12.800000
12.810000
12.820000
12.830000
12.840000
12.850000
12.860000
12.870000
12.880000
12.890000
12.900000
12.910000
12.920000
12.930000
12.940000
12.950000
12.960000
12.970000
12.980000
12.990000
13.000000
13.010000
13.020000
13.030000
13.040000
13.050000
13.060000
13.070000
13.080000
13.090000
13.100000
13.110000
13.120000
13.130000
13.140000
13.150000
13.160000
13.170000
13.180000
13.190000
13.200000
13.210000
13.220000
13.230000
13.240000
13.250000
13.260000
13.270000
13.280000
13.290000
13.300000
13.310000
13.320000
13.330000
13.340000
13.350000
13.360000
13.370000
13.380000
13.390000
13.400000
13.410000
13.420000
13.430000
13.440000
13.450000
13.460000
13.470000
13.480000
13.490000
13.500000
13.510000
13.520000
13.530000
13.540000
13.550000
13.560000
13.570000
13.580000
13.590000
13.600000
13.610000
13.620000
13.630000
13.640000
13.650000
13.660000
13.670000
13.680000
13.690000
13.700000
13.710000
13.720000
13.730000
13.740000
13.750000
13.760000
13.770000
13.780000
13.790000
13.800000
13.810000
13.820000
13.830000
13.840000
13.850000
13.860000
13.870000
13.880000
13.890000
13.900000
13.910000
13.920000
13.930000
13.940000
13.950000
13.960000
13.970000
13.980000
13.990000
14.000000
14.010000
14.020000
14.030000
14.040000
14.050000
14.060000
14.070000
14.080000
14.090000
14.100000
14.110000
14.120000
14.130000
14.140000
14.150000
14.160000
14.170000
14.180000
14.190000
14.200000
14.210000
14.220000
14.230000
14.240000
14.250000
14.260000
14.270000
14.280000
14.290000
14.300000
14.310000
14.320000
14.330000
14.340000
14.350000
14.360000
14.370000
14.380000
14.390000
14.400000
14.410000
14.420000
14.430000
14.440000
14.450000
14.460000
14.470000
14.480000
14.490000
14.500000
14.510000
14.520000
14.530000
14.540000
14.550000
14.560000
14.570000
14.580000
14.590000
14.600000
14.610000
14.620000
14.630000
14.640000
14.650000
14.660000
14.670000
14.680000
14.690000
14.700000
14.710000
14.720000
14.730000
14.740000
14.750000
14.760000
14.770000
14.780000
14.790000
14.800000
14.810000
14.820000
14.830000
14.840000
14.850000
14.860000
14.870000
14.880000
14.890000
14.900000
14.910000
14.920000
14.930000
14.940000
14.950000
14.960000
14.970000
14.980000
14.990000
15.000000
15.010000
15.020000
15.030000
15.040000
15.050000
15.060000
15.070000
15.080000
15.090000
15.100000
15.110000
15.120000
15.130000
15.140000
15.150000
15.160000
15.170000
15.180000
15.190000
15.200000
15.210000
15.220000
15.230000
15.240000
15.250000
15.260000
15.270000
15.280000
15.290000
15.300000
15.310000
15.320000
15.330000
15.340000
15.350000
15.360000
15.370000
15.380000
15.390000
15.400000
15.410000
15.420000
15.430000
15.440000
15.450000
15.460000
15.470000
15.480000
15.490000
15.500000
15.510000
15.520000
15.530000
15.540000
15.550000
15.560000
15.570000
15.580000
15.590000
15.600000
15.610000
15.620000
15.630000
15.640000
15.650000
15.660000
15.670000
15.680000
15.690000
15.700000
15.710000
15.720000
15.730000
15.740000
15.750000
15.760000
15.770000
15.780000
15.790000
15.800000
15.810000
15.820000
15.830000
15.840000
15.850000
15.860000
15.870000
15.880000
15.890000
15.900000
15.910000
15.920000
15.930000
15.940000
15.950000
15.960000
15.970000
15.980000
15.990000
16.000000
16.010000
16.020000
16.030000
16.040000
16.050000
16.060000
16.070000
16.080000
16.090000
16.100000
16.110000
16.120000
16.130000
16.140000
16.150000
16.160000
16.170000
16.180000
16.190000
16.200000
16.210000
16.220000
16.230000
16.240000
16.250000
16.260000
16.270000
16.280000
16.290000
16.300000
16.310000
16.320000
16.330000
16.340000
16.350000
16.360000
16.370000
16.380000
16.390000
16.400000
16.410000
16.420000
16.430000
16.440000
16.450000
16.460000
16.470000
16.480000
16.490000
16.500000
16.510000
16.520000
16.530000
16.540000
16.550000
16.560000
16.570000
16.580000
16.590000
16.600000
16.610000
16.620000
16.630000
16.640000
16.650000
16.660000
16.670000
16.680000
16.690000
16.700000
16.710000
16.720000
16.730000
16.740000
16.750000
16.760000
16.770000
16.780000
16.790000
16.800000
16.810000
16.820000
16.830000
16.840000
16.850000
16.860000
16.870000
16.880000
16.890000
16.900000
16.910000
16.920000
16.930000
16.940000
16.950000
16.960000
16.970000
16.980000
16.990000
17.000000
17.010000
17.020000
17.030000
17.040000
17.050000
17.060000
17.070000
17.080000
17.090000
17.100000
17.110000
17.120000
17.130000
17.140000
17.150000
17.160000
17.170000
17.180000
17.190000
17.200000
17.210000
17.220000
17.230000
17.240000
17.250000
17.260000
17.270000
17.280000
17.290000
17.300000
17.310000
17.320000
17.330000
17.340000
17.350000
17.360000
17.370000
17.380000
17.390000
17.400000
17.410000
17.420000
17.430000
17.440000
17.450000
17.460000
17.470000
17.480000
17.490000
17.500000
17.510000
17.520000
17.530000
17.540000
17.550000
17.560000
17.570000
17.580000
17.590000
17.600000
17.610000
17.620000
17.630000
17.640000
17.650000
17.660000
17.670000
17.680000
17.690000
17.700000
17.710000
17.720000
17.730000
17.740000
17.750000
17.760000
17.770000
17.780000
17.790000
17.800000
17.810000
17.820000
17.830000
17.840000
17.850000
17.860000
17.870000
17.880000
17.890000
17.900000
17.910000
17.920000
17.930000
17.940000
17.950000
17.960000
17.970000
17.980000
17.990000
18.000000
18.010000
18.020000
18.030000
18.040000
18.050000
18.060000
18.070000
18.080000
18.090000
18.100000
18.110000
18.120000
18.130000
18.140000
18.150000
18.160000
18.170000
18.180000
18.190000
18.200000
18.210000
18.220000
18.230000
18.240000
18.250000
18.260000
18.270000
18.280000
18.290000
18.300000
18.310000
18.320000
18.330000
18.340000
18.350000
18.360000
18.370000
18.380000
18.390000
18.400000
18.410000
18.420000
18.430000
18.440000
18.450000
18.460000
18.470000
18.480000
18.490000
18.500000
18.510000
18.520000
18.530000
18.540000
18.550000
18.560000
18.570000
18.580000
18.590000
18.600000
18.610000
18.620000
18.630000
18.640000
18.650000
18.660000
18.670000
18.680000
18.690000
18.700000
18.710000
18.720000
18.730000
18.740000
18.750000
18.760000
18.770000
18.780000
18.790000
18.800000
18.810000
18.820000
18.830000
18.840000
18.850000
18.860000
18.870000
18.880000
18.890000
18.900000
18.910000
18.920000
18.930000
18.940000
18.950000
18.960000
18.970000
18.980000
18.990000
19.000000
19.010000
19.020000
19.030000
19.040000
19.050000
19.060000
19.070000
19.080000
19.090000
19.100000
19.110000
19.120000
19.130000
19.140000
19.150000
19.160000
19.170000
19.180000
19.190000
19.200000
19.210000
19.220000
19.230000
19.240000
19.250000
19.260000
19.270000
19.280000
19.290000
19.300000
19.310000
19.320000
19.330000
19.340000
19.350000
19.360000
19.370000
19.380000
19.390000
19.400000
19.410000
19.420000
19.430000
19.440000
19.450000
19.460000
19.470000
19.480000
19.490000
19.500000
19.510000
19.520000
19.530000
19.540000
19.550000
19.560000
19.570000
19.580000
19.590000
19.600000
19.610000
19.620000
19.630000
19.640000
19.650000
19.660000
19.670000
19.680000
19.690000
19.700000
19.710000
19.720000
19.730000
19.740000
19.750000
19.760000
19.770000
19.780000
19.790000
19.800000
19.810000
19.820000
19.830000
19.840000
19.850000
19.860000
19.870000
19.880000
19.890000
19.900000
19.910000
19.920000
19.930000
19.940000
19.950000
19.960000
19.970000
19.980000
19.990000
20.000000
20.010000
20.020000
20.030000
20.040000
20.050000
20.060000
20.070000
20.080000
20.090000
20.100000
20.110000
20.120000
20.130000
20.140000
20.150000
20.160000
20.170000
20.180000
20.190000
20.200000
20.210000
20.220000
20.230000
20.240000
20.250000
20.260000
20.270000
20.280000
20.290000
20.300000
20.310000
20.320000
20.330000
20.340000
20.350000
20.360000
20.370000
20.380000
20.390000
20.400000
20.410000
20.420000
20.430000
20.440000
20.450000
20.460000
20.470000
20.480000
20.490000
20.500000
20.510000
20.520000
20.530000
20.540000
20.550000
20.560000
20.570000
20.580000
20.590000
20.600000
20.610000
20.620000
20.630000
20.640000
20.650000
20.660000
20.670000
20.680000
20.690000
20.700000
20.710000
20.720000
20.730000
20.740000
20.750000
20.760000
20.770000
20.780000
20.790000
20.800000
20.810000
20.820000
20.830000
20.840000
20.850000
20.860000
20.870000
20.880000
20.890000
20.900000
20.910000
20.920000
20.930000