# vtk DataFile Version 2.0
Generated Volume Mesh
ASCII
DATASET UNSTRUCTURED_GRID
POINTS 202 float
0.000000 0.000000 0.000000
0.049328 0.004976 0.000000
0.099142 0.009426 0.000000
0.148929 0.014240 0.000000
0.198697 0.019487 0.000000
0.248434 0.025207 0.000000
0.298107 0.031405 0.000000
0.347690 0.038001 0.000000
0.397183 0.044870 0.000000
0.446588 0.051874 0.000000
0.495907 0.058845 0.000000
0.545145 0.065593 0.000000
0.594307 0.071900 0.000000
0.643410 0.077514 0.000000
0.692487 0.082195 0.000000
0.741579 0.085719 0.000000
0.790739 0.087919 0.000000
0.840021 0.088710 0.000000
0.889472 0.088112 0.000000
0.939102 0.086217 0.000000
0.988891 0.083116 0.000000
1.038823 0.078874 0.000000
1.088901 0.073553 0.000000
1.139146 0.067254 0.000000
1.189581 0.060157 0.000000
1.240204 0.052517 0.000000
1.290979 0.044606 0.000000
1.341857 0.036650 0.000000
1.392811 0.028828 0.000000
1.443827 0.021335 0.000000
1.494870 0.014353 0.000000
1.545897 0.008007 0.000000
1.596879 0.002361 0.000000
1.647812 -0.002549 0.000000
1.698691 -0.006674 0.000000
1.749505 -0.009980 0.000000
1.800267 -0.012425 0.000000
1.850969 -0.013927 0.000000
1.901579 -0.014445 0.000000
1.952082 -0.013983 0.000000
2.002481 -0.012563 0.000000
2.052759 -0.010211 0.000000
2.102891 -0.007027 0.000000
2.152882 -0.003151 0.000000
2.202746 0.001268 0.000000
2.252502 0.006092 0.000000
2.302162 0.011192 0.000000
2.351741 0.016433 0.000000
2.401278 0.021706 0.000000
2.450799 0.026954 0.000000
2.500312 0.032151 0.000000
2.549868 0.027442 0.000000
2.599422 0.022659 0.000000
2.648985 0.017817 0.000000
2.698584 0.012966 0.000000
2.748245 0.008204 0.000000
2.797977 0.003647 0.000000
2.847792 -0.000606 0.000000
2.897710 -0.004433 0.000000
2.947742 -0.007706 0.000000
2.997906 -0.010300 0.000000
3.048218 -0.012079 0.000000
3.098685 -0.012914 0.000000
3.149305 -0.012690 0.000000
3.200065 -0.011333 0.000000
3.250935 -0.008819 0.000000
3.301878 -0.005202 0.000000
3.352870 -0.000578 0.000000
3.403906 0.004946 0.000000
3.454996 0.011295 0.000000
3.506139 0.018418 0.000000
3.557314 0.026253 0.000000
3.608478 0.034698 0.000000
3.659576 0.043567 0.000000
3.710575 0.052620 0.000000
3.761453 0.061624 0.000000
3.812183 0.070345 0.000000
3.862733 0.078533 0.000000
3.913075 0.085934 0.000000
3.963196 0.092299 0.000000
4.013112 0.097429 0.000000
4.062853 0.101207 0.000000
4.112431 0.103586 0.000000
4.161831 0.104504 0.000000
4.211054 0.103896 0.000000
4.260123 0.101730 0.000000
4.309093 0.098045 0.000000
4.358040 0.093011 0.000000
4.407004 0.086875 0.000000
4.456001 0.079878 0.000000
4.505046 0.072249 0.000000
4.554154 0.064196 0.000000
4.603345 0.055926 0.000000
4.652622 0.047639 0.000000
4.701976 0.039483 0.000000
4.751423 0.031585 0.000000
4.800987 0.024093 0.000000
4.850667 0.017159 0.000000
4.900418 0.010859 0.000000
4.950198 0.005163 0.000000
5.000000 0.000000 0.000000
-0.000431 0.050071 0.000000
0.050000 0.055000 0.000000
0.099435 0.059413 0.000000
0.148816 0.064237 0.000000
0.198132 0.069481 0.000000
0.247386 0.075203 0.000000
0.296616 0.081403 0.000000
0.345862 0.087998 0.000000
0.395149 0.094868 0.000000
0.444501 0.101873 0.000000
0.493947 0.108844 0.000000
0.543514 0.115593 0.000000
0.593240 0.121899 0.000000
0.643156 0.127514 0.000000
0.693282 0.132194 0.000000
0.743622 0.135717 0.000000
0.794156 0.137915 0.000000
0.844846 0.138705 0.000000
0.895642 0.138106 0.000000
0.946521 0.136211 0.000000
0.997481 0.133111 0.000000
1.048525 0.128869 0.000000
1.099638 0.123547 0.000000
1.150779 0.117246 0.000000
1.201888 0.110148 0.000000
1.252915 0.102508 0.000000
1.303843 0.094599 0.000000
1.354675 0.086642 0.000000
1.405398 0.078821 0.000000
1.455990 0.071328 0.000000
1.506453 0.064347 0.000000
1.556809 0.058002 0.000000
1.607074 0.052356 0.000000
1.657247 0.047446 0.000000
1.707323 0.043322 0.000000
1.757302 0.040015 0.000000
1.807162 0.037569 0.000000
1.856894 0.036068 0.000000
1.906519 0.035552 0.000000
1.956055 0.036013 0.000000
2.005505 0.037434 0.000000
2.054894 0.039787 0.000000
2.104263 0.042971 0.000000
2.153637 0.046847 0.000000
2.203028 0.051265 0.000000
2.252443 0.056090 0.000000
2.301893 0.061190 0.000000
2.351392 0.066430 0.000000
2.400929 0.071702 0.000000
2.450489 0.076951 0.000000
2.500067 0.082145 0.000000
2.549700 0.077438 0.000000
2.599322 0.072655 0.000000
2.648923 0.067814 0.000000
2.698486 0.062964 0.000000
2.748000 0.058202 0.000000
2.797478 0.053644 0.000000
2.846931 0.049392 0.000000
2.896358 0.045565 0.000000
2.945776 0.042292 0.000000
2.995194 0.039698 0.000000
3.044626 0.037918 0.000000
3.094088 0.037083 0.000000
3.143609 0.037307 0.000000
3.193218 0.038662 0.000000
3.242951 0.041175 0.000000
3.292836 0.044792 0.000000
3.342875 0.049416 0.000000
3.393052 0.054940 0.000000
3.443343 0.061290 0.000000
3.493741 0.068413 0.000000
3.544249 0.076247 0.000000
3.594889 0.084690 0.000000
3.645680 0.093558 0.000000
3.696612 0.102612 0.000000
3.747656 0.111616 0.000000
3.798793 0.120336 0.000000
3.850002 0.128524 0.000000
3.901258 0.135926 0.000000
3.952521 0.142292 0.000000
4.003739 0.147423 0.000000
4.054860 0.151202 0.000000
4.105864 0.153580 0.000000
4.156758 0.154499 0.000000
4.207527 0.153892 0.000000
4.258143 0.151727 0.000000
4.308559 0.148045 0.000000
4.358734 0.143011 0.000000
4.408676 0.136874 0.000000
4.458417 0.129877 0.000000
4.507989 0.122248 0.000000
4.557418 0.114195 0.000000
4.606724 0.105925 0.000000
4.655938 0.097637 0.000000
4.705099 0.089481 0.000000
4.754217 0.081583 0.000000
4.803297 0.074091 0.000000
4.852372 0.067154 0.000000
4.901496 0.060854 0.000000
4.950706 0.055156 0.000000
5.000000 0.050000 0.000000
CELLS 100 500
4 0 1 102 101
4 1 2 103 102
4 2 3 104 103
4 3 4 105 104
4 4 5 106 105
4 5 6 107 106
4 6 7 108 107
4 7 8 109 108
4 8 9 110 109
4 9 10 111 110
4 10 11 112 111
4 11 12 113 112
4 12 13 114 113
4 13 14 115 114
4 14 15 116 115
4 15 16 117 116
4 16 17 118 117
4 17 18 119 118
4 18 19 120 119
4 19 20 121 120
4 20 21 122 121
4 21 22 123 122
4 22 23 124 123
4 23 24 125 124
4 24 25 126 125
4 25 26 127 126
4 26 27 128 127
4 27 28 129 128
4 28 29 130 129
4 29 30 131 130
4 30 31 132 131
4 31 32 133 132
4 32 33 134 133
4 33 34 135 134
4 34 35 136 135
4 35 36 137 136
4 36 37 138 137
4 37 38 139 138
4 38 39 140 139
4 39 40 141 140
4 40 41 142 141
4 41 42 143 142
4 42 43 144 143
4 43 44 145 144
4 44 45 146 145
4 45 46 147 146
4 46 47 148 147
4 47 48 149 148
4 48 49 150 149
4 49 50 151 150
4 50 51 152 151
4 51 52 153 152
4 52 53 154 153
4 53 54 155 154
4 54 55 156 155
4 55 56 157 156
4 56 57 158 157
4 57 58 159 158
4 58 59 160 159
4 59 60 161 160
4 60 61 162 161
4 61 62 163 162
4 62 63 164 163
4 63 64 165 164
4 64 65 166 165
4 65 66 167 166
4 66 67 168 167
4 67 68 169 168
4 68 69 170 169
4 69 70 171 170
4 70 71 172 171
4 71 72 173 172
4 72 73 174 173
4 73 74 175 174
4 74 75 176 175
4 75 76 177 176
4 76 77 178 177
4 77 78 179 178
4 78 79 180 179
4 79 80 181 180
4 80 81 182 181
4 81 82 183 182
4 82 83 184 183
4 83 84 185 184
4 84 85 186 185
4 85 86 187 186
4 86 87 188 187
4 87 88 189 188
4 88 89 190 189
4 89 90 191 190
4 90 91 192 191
4 91 92 193 192
4 92 93 194 193
4 93 94 195 194
4 94 95 196 195
4 95 96 197 196
4 96 97 198 197
4 97 98 199 198
4 98 99 200 199
4 99 100 201 200
CELL_TYPES 100
9
9
9
9
9
9
9
9
9
9
9
9
9
9
9
9
9
9
9
9
9
9
9
9
9
9
9
9
9
9
9
9
9
9
9
9
9
9
9
9
9
9
9
9
9
9
9
9
9
9
9
9
9
9
9
9
9
9
9
9
9
9
9
9
9
9
9
9
9
9
9
9
9
9
9
9
9
9
9
9
9
9
9
9
9
9
9
9
9
9
9
9
9
9
9
9
9
9
9
9
POINT_DATA 202
SCALARS var1 float
LOOKUP_TABLE default
0.000000
0.100000
0.200000
0.300000
0.400000
0.500000
0.600000
0.700000
0.800000
0.900000
1.000000
1.100000
1.200000
1.300000
1.400000
1.500000
1.600000
1.700000
1.800000
1.900000
2.000000
2.100000
2.200000
2.300000
2.400000
2.500000
2.600000
2.700000
2.800000
2.900000
3.000000
3.100000
3.200000
3.300000
3.400000
3.500000
3.600000
3.700000
3.800000
3.900000
4.000000
4.100000
4.200000
4.300000
4.400000
4.500000
4.600000
4.700000
4.800000
4.900000
5.000000
5.100000
5.200000
5.300000
5.400000
5.500000
5.600000
5.700000
5.800000
5.900000
6.000000
6.100000
6.200000
6.300000
6.400000
6.500000
6.600000
6.700000
6.800000
6.900000
7.000000
7.100000
7.200000
7.300000
7.400000
7.500000
7.600000
7.700000
7.800000
7.900000
8.000000
8.100000
8.200000
8.300000
8.400000
8.500000
8.600000
8.700000
8.800000
8.900000
9.000000
9.100000
9.200000
9.300000
9.400000
9.500000
9.600000
9.700000
9.800000
9.900000
10.000000
10.100000
10.200000
10.300000
10.400000
10.500000
10.600000
10.700000
10.800000
10.900000
11.000000
11.100000
11.200000
11.300000
11.400000
11.500000
11.600000
11.700000
11.800000
11.900000
12.000000
12.100000
12.200000
12.300000
12.400000
12.500000
12.600000
12.700000
12.800000
12.900000
13.000000
13.100000
13.200000
13.300000
13.400000
13.500000
13.600000
13.700000
13.800000
13.900000
14.000000
14.100000
14.200000
14.300000
14.400000
14.500000
14.600000
14.700000
14.800000
14.900000
15.000000
15.100000
15.200000
15.300000
15.400000
15.500000
15.600000
15.700000
15.800000
15.900000
16.000000
16.100000
16.200000
16.300000
16.400000
16.500000
16.600000
16.700000
16.800000
16.900000
17.000000
17.100000
17.200000
17.300000
17.400000
17.500000
17.600000
17.700000
17.800000
17.900000
18.000000
18.100000
18.200000
18.300000
18.400000
18.500000
18.600000
18.700000
18.800000
18.900000
19.000000
19.100000
19.200000
19.300000
19.400000
19.500000
19.600000
19.700000
19.800000
19.900000
20.000000
20.100000
