# vtk DataFile Version 2.0
Generated Volume Mesh
ASCII
DATASET UNSTRUCTURED_GRID
POINTS 499 float
-0.500391 0.107758 -0.500391
-0.500391 0.107758 0.000392
-0.500000 10.000000 -0.000000
-0.500000 10.000000 -0.500000
0.000392 0.107758 0.000392
0.000000 10.000000 0.000000
-0.000000 10.000000 -0.500000
0.000392 0.107758 -0.500391
-0.500391 0.602367 0.000392
-0.500391 1.096976 0.000392
-0.500391 1.591585 0.000392
-0.500391 2.086194 0.000392
-0.500391 2.580803 0.000392
-0.500391 3.075412 0.000392
-0.500391 3.570021 0.000392
-0.500391 4.064630 0.000392
-0.500391 4.559239 0.000392
-0.500391 5.053848 0.000392
-0.500391 5.548457 0.000392
-0.500391 6.043066 0.000392
-0.500391 6.537675 0.000392
-0.500391 7.032284 0.000392
-0.500391 7.526893 0.000392
-0.500391 8.021503 0.000392
-0.500392 8.516112 0.000392
-0.500395 9.010722 0.000389
-0.500410 9.505338 0.000382
-0.500382 9.505340 -0.500410
-0.500388 9.010722 -0.500394
-0.500391 8.516112 -0.500392
-0.500391 8.021503 -0.500391
-0.500391 7.526893 -0.500391
-0.500391 7.032284 -0.500391
-0.500391 6.537675 -0.500391
-0.500391 6.043066 -0.500391
-0.500391 5.548457 -0.500391
-0.500391 5.053848 -0.500391
-0.500391 4.559239 -0.500391
-0.500391 4.064630 -0.500391
-0.500391 3.570021 -0.500391
-0.500391 3.075412 -0.500391
-0.500391 2.580803 -0.500391
-0.500391 2.086194 -0.500391
-0.500391 1.591585 -0.500391
-0.500391 1.096976 -0.500391
-0.500391 0.602367 -0.500391
0.000392 0.602367 0.000392
0.000392 1.096976 0.000392
0.000392 1.591585 0.000392
0.000392 2.086194 0.000392
0.000392 2.580803 0.000392
0.000392 3.075412 0.000392
0.000392 3.570021 0.000392
0.000392 4.064630 0.000392
0.000392 4.559239 0.000392
0.000392 5.053848 0.000392
0.000392 5.548457 0.000392
0.000392 6.043066 0.000392
0.000392 6.537675 0.000392
0.000392 7.032284 0.000392
0.000392 7.526893 0.000392
0.000392 8.021503 0.000392
0.000391 8.516112 0.000393
0.000389 9.010722 0.000396
0.000382 9.505338 0.000412
0.000411 9.505339 -0.500382
0.000395 9.010722 -0.500388
0.000392 8.516112 -0.500391
0.000392 8.021503 -0.500391
0.000392 7.526893 -0.500391
0.000392 7.032284 -0.500391
0.000392 6.537675 -0.500391
0.000392 6.043066 -0.500391
0.000392 5.548457 -0.500391
0.000392 5.053848 -0.500391
0.000392 4.559239 -0.500391
0.000392 4.064630 -0.500391
0.000392 3.570021 -0.500391
0.000392 3.075412 -0.500391
0.000392 2.580803 -0.500391
0.000392 2.086194 -0.500391
0.000392 1.591585 -0.500391
0.000392 1.096976 -0.500391
0.000392 0.602367 -0.500391
-0.237962 2.774080 -0.244829
-0.241575 9.744590 -0.240157
-0.248839 9.255421 -0.294494
-0.250900 4.788271 -0.248540
-0.269852 5.294932 -0.248170
-0.243447 4.172932 -0.251411
-0.263175 8.026720 -0.231990
-0.233152 0.381249 -0.256029
-0.271056 1.585095 -0.242318
-0.273905 6.288754 -0.241850
-0.243219 7.177427 -0.247239
-0.239573 2.294510 -0.264291
-0.245961 8.822440 -0.242166
-0.268293 0.925169 -0.271676
-0.239657 3.340103 -0.250479
-0.250000 3.075412 -0.500391
-0.118785 2.924746 -0.372610
-0.369176 2.924746 -0.372610
-0.118785 2.924746 -0.122218
-0.250000 3.075412 -0.250000
0.000392 3.075412 -0.250000
-0.245208 9.500016 -0.267325
-0.124227 9.380376 -0.147044
-0.120577 9.624977 -0.119888
0.000394 9.505327 -0.249990
-0.120598 9.624974 -0.370286
-0.124216 9.380377 -0.397439
-0.124221 9.133071 -0.397440
-0.374613 9.133071 -0.397446
-0.249996 9.010720 -0.500391
-0.500385 9.258029 -0.500401
-0.249992 9.258025 -0.500392
-0.374611 9.380377 -0.397450
-0.250000 5.053848 -0.500391
-0.125254 4.921059 -0.374466
-0.375645 4.921059 -0.374466
-0.260376 5.041601 -0.248355
-0.385122 5.174390 -0.374281
-0.134730 5.174390 -0.374281
-0.250000 2.828108 -0.500391
-0.118785 2.677441 -0.372610
0.000392 2.828108 -0.500391
-0.500391 4.806544 -0.250000
-0.375645 4.673755 -0.374466
-0.375645 4.921059 -0.124074
-0.500391 5.053848 -0.250000
-0.500391 4.806544 -0.500391
-0.121528 4.366085 -0.375901
-0.247174 4.480601 -0.249976
-0.125254 4.673755 -0.374466
-0.125254 4.673755 -0.124074
0.000392 4.559239 -0.250000
-0.121528 4.366085 -0.125510
-0.250000 4.806544 -0.500391
-0.250000 4.559239 -0.500391
-0.381783 8.024112 -0.366190
-0.500391 8.268807 -0.250000
-0.381783 8.271416 -0.115799
-0.500391 8.268807 0.000392
-0.381783 8.024112 -0.115799
-0.500391 8.021503 -0.250000
-0.125254 4.921059 -0.124074
-0.375645 4.673755 -0.124074
-0.250000 4.806544 0.000392
-0.250000 4.559239 0.000392
0.000392 4.806544 0.000392
-0.134730 5.174390 -0.123889
0.000392 5.053848 -0.250000
-0.385122 5.174390 -0.123889
-0.116380 0.491808 -0.127819
-0.116380 0.244503 -0.127819
0.000392 0.355062 0.000392
0.000392 0.355062 -0.250000
0.000392 0.602367 -0.250000
-0.116380 0.491808 -0.378210
-0.500391 1.838889 -0.250000
-0.500391 2.086194 -0.250000
-0.500391 1.838889 -0.500391
-0.385724 1.835644 -0.371355
-0.385724 1.588340 -0.371355
-0.385724 1.835644 -0.120963
-0.131391 7.776807 -0.366190
-0.131391 8.024112 -0.366190
0.000392 7.774198 -0.500391
0.000392 7.774198 -0.249999
0.000392 7.526893 -0.250000
-0.131392 7.776807 -0.115799
-0.250000 8.021503 -0.500391
-0.250000 7.774198 -0.500391
-0.381783 7.776807 -0.366190
-0.250000 7.526893 -0.500391
-0.500391 7.774198 -0.500391
-0.131392 8.024112 -0.115799
0.000392 8.021503 -0.249999
0.000392 7.774198 0.000392
-0.136757 6.660519 -0.120729
-0.136757 6.413215 -0.120729
0.000392 6.784980 0.000392
0.000392 6.784980 -0.250000
0.000392 7.032284 -0.250000
-0.136757 6.660519 -0.371121
-0.387148 6.660519 -0.371121
-0.250000 7.032284 -0.500391
-0.371805 7.104856 -0.373815
-0.121413 7.104856 -0.373815
-0.258562 6.733091 -0.244545
-0.136757 6.165910 -0.371121
-0.387148 6.165910 -0.371121
-0.250000 6.043066 -0.500391
-0.500391 6.290371 -0.500391
-0.250000 6.290371 -0.500391
-0.387148 6.413215 -0.371121
-0.500391 6.784980 -0.500391
-0.500391 6.784980 -0.250000
-0.500391 7.032284 -0.250000
-0.387148 6.660519 -0.120729
-0.250000 0.355062 0.000392
-0.250000 0.107758 0.000392
-0.366772 0.244503 -0.127819
-0.500391 0.602367 -0.250000
-0.366772 0.491808 -0.127819
-0.366772 0.491808 -0.378210
-0.366772 0.244503 -0.378210
-0.500391 0.355062 -0.500391
-0.500391 0.355062 -0.250000
-0.136757 6.413215 -0.371121
0.000392 6.290371 -0.500391
0.000392 6.043066 -0.250000
-0.136757 6.165910 -0.120729
0.000392 6.290371 -0.250000
0.000392 0.355062 -0.500391
-0.116380 0.244503 -0.378210
-0.250000 0.355062 -0.500391
-0.250000 0.602367 -0.500391
0.000392 6.537675 -0.250000
0.000392 6.290371 0.000392
-0.250000 6.290371 0.000392
-0.250000 6.043066 0.000392
-0.387148 6.165910 -0.120729
-0.387148 5.918606 -0.120729
-0.250000 5.795762 0.000392
-0.250000 5.548457 0.000392
0.000392 5.795762 0.000392
-0.136757 5.918606 -0.120729
0.000392 5.795762 -0.250000
0.000392 5.548457 -0.250000
0.000392 5.795762 -0.500391
-0.136757 5.918606 -0.371121
-0.500391 6.043066 -0.250000
-0.387148 5.918606 -0.371121
-0.500391 5.795762 -0.500391
-0.500391 5.795762 -0.250000
-0.134730 5.421695 -0.123889
-0.385122 5.421695 -0.374281
-0.250000 5.548457 -0.250000
-0.500391 5.548457 -0.250000
-0.385122 5.421695 -0.123889
-0.500391 5.795762 0.000392
-0.500391 7.774198 -0.250000
-0.250000 0.107758 -0.250000
-0.250000 0.107758 -0.500391
0.000392 0.107758 -0.250000
-0.119591 2.190352 -0.382341
-0.119591 2.190352 -0.131950
0.000392 2.086194 -0.250000
-0.135332 1.835644 -0.120963
-0.135332 1.835644 -0.371355
-0.255315 1.939802 -0.253305
-0.500391 1.591585 -0.250000
-0.385724 1.588340 -0.120963
-0.500391 1.838889 0.000392
-0.121413 7.352160 -0.373815
0.000392 7.279589 -0.500391
-0.121413 7.104856 -0.123424
0.000392 7.279589 -0.250000
-0.250000 7.774198 0.000392
-0.381783 7.776807 -0.115799
-0.250000 7.526893 0.000392
-0.250000 7.032284 0.000392
-0.371805 7.104856 -0.123424
-0.121413 7.352160 -0.123424
0.000392 7.279589 0.000392
-0.250000 7.279589 0.000392
-0.387148 6.413215 -0.120729
-0.500391 6.290371 -0.250000
-0.500391 6.537675 -0.250000
-0.250000 1.096976 -0.500391
-0.135332 1.341035 -0.371355
-0.385724 1.341035 -0.371355
-0.500391 1.344280 -0.500391
-0.250000 1.344280 -0.500391
-0.249991 9.505328 -0.500393
-0.370996 9.624974 -0.370266
-0.249998 8.763416 -0.500391
-0.373175 8.916581 -0.371280
-0.122784 8.669276 -0.371278
-0.373175 8.669276 -0.371279
-0.249999 8.516112 -0.500391
-0.500390 8.763417 -0.500393
0.000394 8.763417 -0.500389
-0.122783 8.916581 -0.371277
-0.250000 8.516112 -0.249999
-0.122785 8.669276 -0.120886
0.000392 8.516112 -0.249999
-0.500391 9.010720 -0.250003
-0.373177 8.916581 -0.120888
-0.500391 8.763416 -0.250001
-0.500391 1.096976 -0.250000
-0.385724 1.341035 -0.120963
-0.269675 1.255132 -0.256997
-0.384342 1.011072 -0.386034
-0.384342 1.011072 -0.135642
0.000392 5.301153 0.000392
0.000392 5.301153 -0.250000
-0.134730 5.421695 -0.374281
-0.250000 5.053848 0.000392
-0.250000 5.301153 0.000392
-0.500391 7.526893 -0.250000
-0.500391 7.774198 0.000392
-0.250000 5.795762 -0.500391
-0.250000 5.548457 -0.500391
-0.500391 5.301153 0.000392
-0.131392 8.271416 -0.115799
-0.250000 8.516112 0.000392
-0.500391 8.516112 -0.250000
-0.381783 8.271416 -0.366191
-0.250000 3.322717 0.000392
-0.250000 3.075412 0.000392
0.000392 3.322717 0.000392
-0.119633 3.207757 -0.125044
-0.119633 3.455062 -0.125044
-0.370024 3.207757 -0.125044
0.000392 3.570021 -0.250000
0.000392 3.322717 -0.250000
-0.119633 3.455062 -0.375435
-0.370024 3.455062 -0.125044
-0.250000 3.570021 0.000392
-0.500391 3.322717 0.000392
-0.250000 3.570021 -0.250000
-0.250009 9.505328 0.000394
-0.370975 9.624974 -0.119867
-0.120688 9.872256 -0.119983
0.000404 9.752699 0.000304
-0.249976 9.752649 0.000388
-0.500391 6.290371 0.000392
-0.250000 6.537675 0.000392
-0.250000 3.570021 -0.500391
-0.500391 3.570021 -0.250000
-0.370024 3.455062 -0.375435
0.000304 9.752697 -0.500403
-0.250024 9.752648 -0.500387
-0.250000 10.000000 -0.500000
-0.370892 9.872252 -0.370178
-0.120692 9.872248 -0.370182
-0.500402 9.752697 -0.500302
-0.500391 1.344280 -0.250000
-0.500391 1.344280 0.000392
-0.133951 1.011072 -0.386034
-0.135332 1.588340 -0.371355
-0.250000 1.838889 -0.500391
-0.250000 1.591585 -0.500391
-0.370024 3.207757 -0.375435
-0.500391 3.322717 -0.250000
-0.500391 3.075412 -0.250000
-0.500391 3.322717 -0.500391
-0.250000 2.086194 0.000392
-0.369982 2.190352 -0.131950
-0.250000 10.000000 -0.250000
-0.370887 9.872248 -0.119978
-0.500000 10.000000 -0.250000
-0.500388 9.752649 -0.249977
0.000392 4.806544 -0.250000
0.000392 4.806544 -0.500391
-0.121528 4.118781 -0.125510
-0.371919 4.118781 -0.125510
-0.250000 4.064630 0.000392
-0.500391 3.817326 0.000392
-0.250000 3.817326 0.000392
-0.371919 3.871477 -0.125510
-0.371919 4.366085 -0.125510
-0.247400 9.038931 -0.268330
-0.374618 9.133071 -0.147054
0.000392 3.817326 0.000392
-0.121528 3.871477 -0.125510
0.000392 3.817326 -0.250000
0.000392 4.064630 -0.250000
-0.121528 4.118781 -0.375901
-0.500393 9.505327 -0.250009
-0.500303 9.752697 0.000403
-0.250000 10.000000 0.000000
-0.371805 7.352160 -0.123424
-0.500391 7.279589 0.000392
-0.371919 3.871477 -0.375901
-0.500391 3.817326 -0.250000
-0.131391 8.271416 -0.366190
0.000392 8.268807 -0.500391
-0.249999 8.268807 -0.500391
-0.371919 4.118781 -0.375901
-0.250000 3.817326 -0.500391
-0.121528 3.871477 -0.375901
0.000392 3.817326 -0.500391
-0.250000 4.064630 -0.500391
-0.369176 2.677441 -0.122218
-0.118785 2.677441 -0.122218
-0.250000 2.580803 0.000392
0.000392 2.828108 0.000392
-0.250000 2.828108 0.000392
-0.500391 3.817326 -0.500391
-0.135332 1.588340 -0.120963
-0.250000 1.591585 0.000392
-0.250000 1.838889 0.000392
0.000392 1.838889 0.000392
0.000392 1.838889 -0.250000
0.000392 1.591585 -0.250000
0.000392 1.838889 -0.500391
-0.119633 3.207757 -0.375435
-0.250000 3.322717 -0.500391
0.000392 3.322717 -0.500391
0.000392 0.849671 -0.500391
-0.133951 0.763768 -0.386034
-0.250000 0.849671 -0.500391
0.000392 8.268807 -0.249999
-0.133951 1.011072 -0.135642
0.000392 1.096976 -0.250000
-0.135332 1.341035 -0.120963
-0.250000 1.344280 0.000392
-0.250000 1.096976 0.000392
0.000392 1.344280 0.000392
0.000392 1.344280 -0.500391
0.000392 1.344280 -0.250000
-0.250000 2.580803 -0.500391
0.000392 2.333499 -0.500391
-0.250000 2.333499 -0.500391
-0.369982 2.437657 -0.382341
-0.119591 2.437657 -0.382341
-0.119591 2.437657 -0.131950
0.000392 2.580803 -0.250000
-0.238768 2.534295 -0.254560
0.000392 2.828108 -0.250000
-0.369176 2.677441 -0.372610
-0.500391 2.828108 -0.500391
-0.500391 0.107758 -0.250000
-0.500391 4.311935 -0.500391
-0.250000 4.311935 -0.500391
-0.371919 4.366085 -0.375901
-0.384342 0.763768 -0.386034
-0.500391 0.849671 -0.500391
0.000392 5.301153 -0.500391
-0.250000 5.301153 -0.500391
-0.500391 5.301153 -0.250000
-0.500391 4.806544 0.000392
-0.250000 6.537675 -0.500391
-0.500391 5.301153 -0.500391
-0.374622 9.380376 -0.147055
-0.250001 8.763416 0.000392
-0.250003 9.010720 0.000392
-0.500393 8.763416 0.000391
-0.373177 8.669276 -0.120888
-0.122786 8.916581 -0.120886
-0.500401 9.258028 0.000385
-0.250007 9.258025 0.000393
-0.500391 8.268807 -0.500391
-0.500391 0.849671 -0.250000
-0.500391 0.849671 0.000392
-0.384342 0.763768 -0.135642
0.000385 9.258029 0.000403
-0.124227 9.133071 -0.147048
-0.500391 7.279589 -0.250000
-0.250000 0.849671 0.000392
-0.371805 7.352160 -0.373815
-0.250000 7.279589 -0.500391
-0.500391 7.279589 -0.500391
-0.500391 4.064630 -0.250000
-0.500391 4.559239 -0.250000
-0.250000 7.526893 -0.250000
0.000000 10.000000 -0.250000
0.000392 8.268807 0.000392
-0.369982 2.190352 -0.382341
-0.250000 2.086194 -0.500391
-0.500391 2.333499 -0.500391
-0.369176 2.924746 -0.122218
-0.500391 2.828108 -0.250000
-0.500391 2.580803 -0.250000
-0.500391 2.828108 0.000392
-0.250000 8.268807 0.000392
-0.250000 8.021503 0.000392
0.000392 2.333499 0.000392
-0.250000 2.333499 0.000392
-0.500391 0.355062 0.000392
-0.500391 2.333499 0.000392
-0.369982 2.437657 -0.131950
0.000402 9.258029 -0.500384
-0.250723 0.653209 -0.263853
0.000388 9.752649 -0.250023
0.000392 4.311935 -0.500391
0.000392 4.311935 -0.250000
0.000392 4.311935 0.000392
-0.250000 0.602367 0.000392
-0.250000 4.311935 0.000392
-0.500391 4.311935 0.000392
0.000392 6.784980 -0.500391
-0.250000 6.784980 -0.500391
-0.500392 9.258025 -0.250007
-0.500391 2.333499 -0.250000
0.000392 0.849671 0.000392
0.000392 0.849671 -0.250000
-0.133951 0.763768 -0.135642
0.000392 2.333499 -0.250000
0.000390 8.763416 0.000394
0.000392 8.763416 -0.249998
0.000392 9.010720 -0.249996
0.000392 9.258025 -0.249992
-0.500391 4.311935 -0.250000
-0.250000 6.784980 0.000392
-0.500391 6.784980 0.000392
CELLS 220 2420
10 40 84 78 51
101 100 99 103 102
104 10 85 64 86
65 107 106 105 109
108 110 10 66 28
86 27 113 112 111
115 114 116 10 36
87 74 88 119 118
117 121 120 122 10
40 84 79 78 101
124 123 99 100 125
10 17 87 37 36
128 127 126 129 119
130 10 75 87 89
54 133 132 131 135
134 136 10 36 87
37 75 119 127 130
137 133 138 10 90
24 30 23 141 140
139 143 142 144 10
55 16 87 54 147
146 145 149 148 134
10 88 87 74 55
120 118 122 150 145
151 10 87 17 88
36 128 152 120 119
129 121 10 46 4
91 83 155 154 153
157 156 158 10 43
42 11 92 161 160
159 163 162 164 10
69 68 90 60 167
166 165 169 168 170
10 30 68 90 69
171 166 139 172 167
165 10 69 31 90
30 174 173 165 172
175 139 10 68 61
90 60 177 176 166
168 178 170 10 59
58 93 70 181 180
179 183 182 184 10
70 32 93 94 186
185 184 188 187 189
10 72 34 93 33
192 191 190 194 193
195 10 32 21 33
93 198 197 196 185
199 195 10 4 46
91 1 155 153 154
201 200 202 10 45
91 8 0 205 204
203 207 206 208 10
93 72 71 57 190
210 209 212 211 213
10 7 91 83 45
215 158 214 216 205
217 10 71 58 93
57 218 180 209 213
219 212 10 57 58
93 19 219 180 212
221 220 222 10 57
18 93 56 224 223
212 226 225 227 10
72 73 56 93 230
229 228 190 231 227
10 34 93 19 35
191 222 232 234 233
235 10 56 35 88
18 238 237 236 225
239 240 10 18 93
56 35 223 227 225
239 233 238 10 57
93 18 19 212 223
224 221 222 241 10
23 30 90 31 144
139 143 242 175 173
10 0 91 4 7
206 154 243 244 215
245 10 80 49 95
92 248 247 246 250
249 251 10 10 92
43 11 253 163 252
254 164 159 10 83
4 91 7 156 154
158 214 245 215 10
94 70 69 59 188
256 255 257 183 258
10 22 90 61 60
260 176 259 261 170
178 10 59 94 21
60 257 263 262 265
264 266 10 34 93
33 20 191 195 193
268 267 269 10 44
92 82 43 272 271
270 273 163 274 10
32 21 93 94 198
199 185 187 263 189
10 70 93 59 94
184 179 183 188 189
257 10 65 85 27
86 109 276 275 110
105 116 10 67 96
28 29 279 278 277
281 280 282 10 67
96 66 28 279 284
283 277 278 113 10
29 96 62 67 280
286 285 281 279 287
10 28 96 25 29
278 289 288 282 280
290 10 44 92 9
97 272 292 291 294
293 295 10 56 73
55 88 229 297 296
236 298 150 10 94
69 60 59 255 169
264 257 258 265 10
17 55 88 56 299
150 152 300 296 236
10 23 31 90 22
242 173 143 302 301
260 10 34 73 93
35 303 231 191 234
304 233 10 56 18
88 17 225 240 236
300 305 152 10 24
62 90 29 307 306
141 308 285 309 10
35 93 56 73 233
227 238 304 231 229
10 55 17 88 87
299 152 150 145 128
120 10 52 51 13
98 312 311 310 314
313 315 10 77 51
52 98 317 312 316
318 313 314 10 52
14 98 13 320 319
314 310 321 315 10
98 52 77 14 314
316 318 319 320 322
10 64 85 26 5
107 324 323 326 325
327 10 20 93 19
34 267 222 328 268
191 232 10 19 58
93 20 220 180 222
328 329 267 10 77
14 39 98 322 331
330 318 319 332 10
6 3 65 85 335
334 333 337 336 109
10 85 65 27 3
109 275 276 336 334
338 10 92 44 9
10 272 291 292 253
339 340 10 92 82
97 44 271 341 293
272 270 294 10 42
81 92 43 343 342
162 161 344 163 10
10 92 44 43 253
272 339 252 163 273
10 14 40 98 13
346 345 319 321 347
315 10 98 14 39
40 319 331 332 345
346 348 10 92 49
95 11 249 247 251
164 349 350 10 6
85 2 3 337 352
351 335 336 353 10
3 85 2 27 336
352 353 338 276 354
10 87 74 54 75
118 355 134 133 356
135 10 53 15 89
14 359 358 357 361
360 362 10 54 87
89 16 134 132 136
148 146 363 10 25
96 28 86 289 278
288 365 364 112 10
53 89 52 14 357
367 366 361 362 320
10 52 53 76 89
366 369 368 367 357
370 10 27 85 2
26 276 352 354 371
324 372 10 5 85
26 2 325 324 327
373 352 372 10 60
94 21 22 264 263
266 261 374 375 10
15 39 89 14 377
376 358 360 331 362
10 67 68 90 29
379 166 378 281 380
309 10 89 77 38
76 383 382 381 370
384 385 10 76 52
89 77 368 367 370
384 316 383 10 89
14 39 77 362 331
376 383 322 330 10
14 52 77 89 320
316 322 362 367 383
10 12 50 84 51
388 387 386 390 389
102 10 39 77 38
89 330 382 391 376
383 381 10 92 10
48 49 253 393 392
249 394 395 10 92
49 11 10 249 349
164 253 394 254 10
80 92 48 49 250
392 396 248 249 395
10 81 92 48 80
342 392 397 398 250
396 10 98 78 40
39 399 99 345 332
400 348 10 78 98
77 39 399 318 401
400 332 330 10 98
78 51 40 399 104
313 345 99 103 10
78 51 77 98 104
317 401 399 313 318
10 93 18 19 35
223 241 222 233 239
235 10 51 40 13
98 103 347 311 313
345 315 10 83 97
82 44 403 341 402
404 294 270 10 67
61 90 68 405 176
378 379 177 166 10
47 82 97 92 407
341 406 408 271 293
10 9 92 48 47
292 392 409 410 408
411 10 92 82 81
47 271 412 342 408
407 413 10 41 80
79 95 416 415 414
417 246 418 10 50
79 95 84 420 418
419 387 124 421 10
78 50 84 79 422
387 100 125 420 124
10 79 41 84 40
414 423 124 123 424
101 10 79 95 84
41 418 421 124 414
417 423 10 91 1
0 4 202 425 206
154 201 243 10 38
76 37 89 385 427
426 381 370 428 10
45 97 83 44 429
403 217 430 294 404
10 73 74 88 35
431 122 298 304 432
237 10 97 92 9
47 293 292 295 406
408 410 10 56 57
72 93 226 211 228
227 212 190 10 36
88 18 17 121 240
433 129 152 305 10
17 16 87 55 434
146 128 299 147 145
10 72 33 93 71
194 195 190 210 435
209 10 35 74 88
36 432 122 237 436
117 121 10 86 85
27 26 105 276 116
437 324 371 10 24
25 63 96 440 439
438 441 289 442 10
24 29 96 62 308
280 441 307 285 286
10 26 64 25 86
323 444 443 437 106
365 10 29 68 90
30 380 166 309 445
171 139 10 97 9
45 8 295 446 429
448 447 203 10 64
25 86 63 444 365
106 449 439 450 10
74 75 87 36 356
133 118 117 137 119
10 44 9 45 97
291 446 430 294 295
429 10 21 94 32
22 263 187 198 375
374 451 10 54 55
74 87 149 151 355
134 145 118 10 97
47 9 8 406 410
295 448 452 447 10
31 69 94 70 174
255 453 454 256 188
10 31 94 32 70
453 187 455 454 188
186 10 15 38 89
39 456 381 358 377
391 376 10 22 94
32 31 374 187 451
301 453 455 10 87
37 89 16 127 428
132 146 457 363 10
94 22 60 31 374
261 264 453 301 458
10 2 6 5 85
351 459 373 352 337
325 10 62 61 90
67 460 176 306 287
405 378 10 90 31
69 60 173 174 165
170 458 169 10 29
24 30 90 308 140
445 309 141 139 10
82 92 81 43 271
342 412 274 163 344
10 95 92 42 80
251 162 461 246 250
462 10 80 42 95
41 462 461 246 416
463 417 10 13 41
84 12 465 423 464
467 466 386 10 23
62 90 24 468 306
143 142 307 141 10
23 61 90 62 469
176 143 468 460 306
10 49 50 95 11
470 419 247 349 471
350 10 12 13 51
84 467 311 390 386
464 102 10 26 64
86 85 323 106 437
324 107 105 10 8
1 0 91 472 425
208 204 202 206 10
73 35 88 56 304
237 298 229 238 236
10 11 50 95 12
471 419 350 473 388
474 10 81 47 48
92 413 411 397 342
408 392 10 10 92
48 9 253 392 393
340 292 409 10 27
65 86 66 275 110
116 115 475 111 10
91 97 45 8 476
429 205 204 448 203
10 25 86 63 96
365 450 439 289 364
442 10 80 81 92
42 398 342 250 462
343 162 10 87 75
89 37 133 131 132
127 138 428 10 87
37 16 17 127 457
146 128 126 434 10
6 64 85 65 477
107 337 333 108 109
10 75 89 37 76
131 428 138 478 370
427 10 75 53 89
76 479 357 131 478
369 370 10 54 53
89 75 480 357 136
135 479 131 10 1
46 91 8 200 153
202 472 481 204 10
83 97 45 91 403
429 217 158 476 205
10 7 91 45 0
215 205 216 244 206
207 10 15 54 89
16 482 136 358 483
148 363 10 70 58
93 71 182 180 184
484 218 209 10 71
33 93 32 435 195
209 485 196 185 10
26 28 86 25 486
112 437 443 288 365
10 71 70 32 93
484 186 485 209 184
185 10 96 66 28
86 284 113 278 364
111 112 10 42 95
41 12 461 417 463
487 474 466 10 82
46 47 97 489 488
407 341 490 406 10
15 53 89 54 359
357 358 482 480 136
10 42 11 95 12
160 350 461 487 473
474 10 11 92 42
95 164 162 160 350
251 461 10 82 97
83 46 341 403 402
489 490 157 10 8
46 91 97 481 153
204 448 490 476 10
34 93 73 72 191
231 303 192 190 230
10 46 8 47 97
481 452 488 490 448
406 10 40 41 84
13 424 423 101 347
465 464 10 97 46
91 83 490 153 476
403 157 158 10 95
50 84 12 419 387
421 474 388 386 10
25 29 96 24 290
280 289 440 308 441
10 95 80 79 49
246 415 418 247 248
491 10 84 12 41
95 386 466 423 421
474 417 10 51 50
84 78 389 387 102
104 422 100 10 67
62 29 90 287 285
281 378 306 309 10
84 13 51 40 464
311 102 101 347 103
10 49 50 79 95
470 420 491 247 419
418 10 60 31 69
94 458 174 169 264
453 255 10 36 35
18 88 436 239 433
121 237 240 10 74
55 73 88 151 297
431 122 150 298 10
63 62 96 66 492
286 442 494 493 284
10 66 65 86 63
475 110 111 494 495
450 10 67 62 66
96 287 493 283 279
286 284 10 15 16
89 38 483 363 358
456 496 381 10 93
94 21 59 189 263
199 179 257 262 10
20 59 93 21 497
179 267 498 262 199
10 27 28 86 26
114 112 116 371 486
437 10 93 21 33
20 199 197 195 267
498 269 10 58 59
93 20 181 179 180
329 497 267 10 60
31 22 90 458 301
261 170 173 260 10
24 63 62 96 438
492 307 441 442 286
10 64 63 86 65
449 450 106 108 495
110 10 22 61 90
23 259 176 260 302
469 143 10 85 6
5 64 337 459 325
107 477 326 10 16
37 89 38 457 428
363 496 426 381 10
63 66 96 86 494
284 442 450 111 364
CELL_TYPES 220
24
24
24
24
24
24
24
24
24
24
24
24
24
24
24
24
24
24
24
24
24
24
24
24
24
24
24
24
24
24
24
24
24
24
24
24
24
24
24
24
24
24
24
24
24
24
24
24
24
24
24
24
24
24
24
24
24
24
24
24
24
24
24
24
24
24
24
24
24
24
24
24
24
24
24
24
24
24
24
24
24
24
24
24
24
24
24
24
24
24
24
24
24
24
24
24
24
24
24
24
24
24
24
24
24
24
24
24
24
24
24
24
24
24
24
24
24
24
24
24
24
24
24
24
24
24
24
24
24
24
24
24
24
24
24
24
24
24
24
24
24
24
24
24
24
24
24
24
24
24
24
24
24
24
24
24
24
24
24
24
24
24
24
24
24
24
24
24
24
24
24
24
24
24
24
24
24
24
24
24
24
24
24
24
24
24
24
24
24
24
24
24
24
24
24
24
24
24
24
24
24
24
24
24
24
24
24
24
24
24
24
24
24
24
24
24
24
24
24
24
POINT_DATA 499
SCALARS var1 float
LOOKUP_TABLE default
0.000000
0.100000
0.200000
0.300000
0.400000
0.500000
0.600000
0.700000
0.800000
0.900000
1.000000
1.100000
1.200000
1.300000
1.400000
1.500000
1.600000
1.700000
1.800000
1.900000
2.000000
2.100000
2.200000
2.300000
2.400000
2.500000
2.600000
2.700000
2.800000
2.900000
3.000000
3.100000
3.200000
3.300000
3.400000
3.500000
3.600000
3.700000
3.800000
3.900000
4.000000
4.100000
4.200000
4.300000
4.400000
4.500000
4.600000
4.700000
4.800000
4.900000
5.000000
5.100000
5.200000
5.300000
5.400000
5.500000
5.600000
5.700000
5.800000
5.900000
6.000000
6.100000
6.200000
6.300000
6.400000
6.500000
6.600000
6.700000
6.800000
6.900000
7.000000
7.100000
7.200000
7.300000
7.400000
7.500000
7.600000
7.700000
7.800000
7.900000
8.000000
8.100000
8.200000
8.300000
8.400000
8.500000
8.600000
8.700000
8.800000
8.900000
9.000000
9.100000
9.200000
9.300000
9.400000
9.500000
9.600000
9.700000
9.800000
9.900000
10.000000
10.100000
10.200000
10.300000
10.400000
10.500000
10.600000
10.700000
10.800000
10.900000
11.000000
11.100000
11.200000
11.300000
11.400000
11.500000
11.600000
11.700000
11.800000
11.900000
12.000000
12.100000
12.200000
12.300000
12.400000
12.500000
12.600000
12.700000
12.800000
12.900000
13.000000
13.100000
13.200000
13.300000
13.400000
13.500000
13.600000
13.700000
13.800000
13.900000
14.000000
14.100000
14.200000
14.300000
14.400000
14.500000
14.600000
14.700000
14.800000
14.900000
15.000000
15.100000
15.200000
15.300000
15.400000
15.500000
15.600000
15.700000
15.800000
15.900000
16.000000
16.100000
16.200000
16.300000
16.400000
16.500000
16.600000
16.700000
16.800000
16.900000
17.000000
17.100000
17.200000
17.300000
17.400000
17.500000
17.600000
17.700000
17.800000
17.900000
18.000000
18.100000
18.200000
18.300000
18.400000
18.500000
18.600000
18.700000
18.800000
18.900000
19.000000
19.100000
19.200000
19.300000
19.400000
19.500000
19.600000
19.700000
19.800000
19.900000
20.000000
20.100000
20.200000
20.300000
20.400000
20.500000
20.600000
20.700000
20.800000
20.900000
21.000000
21.100000
21.200000
21.300000
21.400000
21.500000
21.600000
21.700000
21.800000
21.900000
22.000000
22.100000
22.200000
22.300000
22.400000
22.500000
22.600000
22.700000
22.800000
22.900000
23.000000
23.100000
23.200000
23.300000
23.400000
23.500000
23.600000
23.700000
23.800000
23.900000
24.000000
24.100000
24.200000
24.300000
24.400000
24.500000
24.600000
24.700000
24.800000
24.900000
25.000000
25.100000
25.200000
25.300000
25.400000
25.500000
25.600000
25.700000
25.800000
25.900000
26.000000
26.100000
26.200000
26.300000
26.400000
26.500000
26.600000
26.700000
26.800000
26.900000
27.000000
27.100000
27.200000
27.300000
27.400000
27.500000
27.600000
27.700000
27.800000
27.900000
28.000000
28.100000
28.200000
28.300000
28.400000
28.500000
28.600000
28.700000
28.800000
28.900000
29.000000
29.100000
29.200000
29.300000
29.400000
29.500000
29.600000
29.700000
29.800000
29.900000
30.000000
30.100000
30.200000
30.300000
30.400000
30.500000
30.600000
30.700000
30.800000
30.900000
31.000000
31.100000
31.200000
31.300000
31.400000
31.500000
31.600000
31.700000
31.800000
31.900000
32.000000
32.100000
32.200000
32.300000
32.400000
32.500000
32.600000
32.700000
32.800000
32.900000
33.000000
33.100000
33.200000
33.300000
33.400000
33.500000
33.600000
33.700000
33.800000
33.900000
34.000000
34.100000
34.200000
34.300000
34.400000
34.500000
34.600000
34.700000
34.800000
34.900000
35.000000
35.100000
35.200000
35.300000
35.400000
35.500000
35.600000
35.700000
35.800000
35.900000
36.000000
36.100000
36.200000
36.300000
36.400000
36.500000
36.600000
36.700000
36.800000
36.900000
37.000000
37.100000
37.200000
37.300000
37.400000
37.500000
37.600000
37.700000
37.800000
37.900000
38.000000
38.100000
38.200000
38.300000
38.400000
38.500000
38.600000
38.700000
38.800000
38.900000
39.000000
39.100000
39.200000
39.300000
39.400000
39.500000
39.600000
39.700000
39.800000
39.900000
40.000000
40.100000
40.200000
40.300000
40.400000
40.500000
40.600000
40.700000
40.800000
40.900000
41.000000
41.100000
41.200000
41.300000
41.400000
41.500000
41.600000
41.700000
41.800000
41.900000
42.000000
42.100000
42.200000
42.300000
42.400000
42.500000
42.600000
42.700000
42.800000
42.900000
43.000000
43.100000
43.200000
43.300000
43.400000
43.500000
43.600000
43.700000
43.800000
43.900000
44.000000
44.100000
44.200000
44.300000
44.400000
44.500000
44.600000
44.700000
44.800000
44.900000
45.000000
45.100000
45.200000
45.300000
45.400000
45.500000
45.600000
45.700000
45.800000
45.900000
46.000000
46.100000
46.200000
46.300000
46.400000
46.500000
46.600000
46.700000
46.800000
46.900000
47.000000
47.100000
47.200000
47.300000
47.400000
47.500000
47.600000
47.700000
47.800000
47.900000
48.000000
48.100000
48.200000
48.300000
48.400000
48.500000
48.600000
48.700000
48.800000
48.900000
49.000000
49.100000
49.200000
49.300000
49.400000
49.500000
49.600000
49.700000
49.800000
